/*--------------------------------*- C++ -*----------------------------------*\
| =========                 |                                                 |
| \\      /  F ield         | OpenFOAM: The Open Source CFD Toolbox           |
|  \\    /   O peration     | Version:  2.1                                   |
|   \\  /    A nd           | Web:      www.OpenFOAM.org                      |
|    \\/     M anipulation  |                                                 |
\*---------------------------------------------------------------------------*/
/*   Windows 32 and 64 bit porting by blueCAPE: http://www.bluecape.com.pt   *\
|  Based on Windows porting (2.0.x v4) by Symscape: http://www.symscape.com   |
\*---------------------------------------------------------------------------*/
FoamFile
{
    version     2.0;
    format      ascii;
    class       polyBoundaryMesh;
    location    "constant/polyMesh";
    object      boundary;
}
// * * * * * * * * * * * * * * * * * * * * * * * * * * * * * * * * * * * * * //

6
(
    my_cube_bottom
    {
        type            patch;
        nFaces          1;
        startFace       0;
    }
    my_cube_left
    {
        type            patch;
        nFaces          1;
        startFace       1;
    }
    my_cube_front
    {
        type            patch;
        nFaces          1;
        startFace       2;
    }
    my_cube_right
    {
        type            patch;
        nFaces          1;
        startFace       3;
    }
    my_cube_back
    {
        type            patch;
        nFaces          1;
        startFace       4;
    }
    my_cube_top
    {
        type            patch;
        nFaces          1;
        startFace       5;
    }
)

// ************************************************************************* //
