FoamFile
{
    version     2.0;
    format      ascii;
    class       polyBoundaryMesh;
    location    "constant/polyMesh";
    object      boundary;
}
6
(
    my_cube_bottom
    {
        type            patch;
        nFaces          4;
        startFace       12;
    }
    my_cube_left
    {
        type            patch;
        nFaces          4;
        startFace       16;
    }
    my_cube_front
    {
        type            patch;
        nFaces          4;
        startFace       20;
    }
    my_cube_right
    {
        type            patch;
        nFaces          4;
        startFace       24;
    }
    my_cube_back
    {
        type            patch;
        nFaces          4;
        startFace       28;
    }
    my_cube_top
    {
        type            patch;
        nFaces          4;
        startFace       32;
    }
)