/*--------------------------------*- C++ -*----------------------------------*\
| =========                 |                                                 |
| \\      /  F ield         | OpenFOAM: The Open Source CFD Toolbox           |
|  \\    /   O peration     | Version:  2.1                                   |
|   \\  /    A nd           | Web:      www.OpenFOAM.org                      |
|    \\/     M anipulation  |                                                 |
\*---------------------------------------------------------------------------*/
/*   Windows 32 and 64 bit porting by blueCAPE: http://www.bluecape.com.pt   *\
|  Based on Windows porting (2.0.x v4) by Symscape: http://www.symscape.com   |
\*---------------------------------------------------------------------------*/
FoamFile
{
    version     2.0;
    format      ascii;
    class       surfaceScalarField;
    location    "0";
    object      phi;
}
// * * * * * * * * * * * * * * * * * * * * * * * * * * * * * * * * * * * * * //

dimensions      [0 3 -1 0 0 0 0];

internalField   nonuniform List<scalar> 
3890
(
0.00539994
-0.0761463
0.0707464
0.0103763
-0.0701269
0.0651502
0.015029
-0.0654841
0.0608314
0.0194288
-0.0618279
0.0574281
0.0236275
-0.0588974
0.0546986
0.0276634
-0.0565128
0.0524769
0.0315653
-0.0545474
0.0506454
0.0353561
-0.0529092
0.0491182
0.0390592
-0.0515309
0.0478276
-0.0503637
0.0467082
0.0427145
0.00493666
-0.0810833
0.0094865
-0.0746767
0.0137403
-0.069738
0.0177629
-0.0658505
0.0216013
-0.0627355
0.0252898
-0.0602012
0.0288546
-0.058112
0.0323155
-0.0563704
0.0356902
-0.0549059
-0.0536697
0.0389965
0.00444094
-0.0855242
0.00853403
-0.0787698
0.0123612
-0.0735653
0.0159808
-0.06947
0.0194349
-0.0661895
0.0227538
-0.0635204
0.02596
-0.0613185
0.029068
-0.0594786
0.0320834
-0.0579215
-0.0565843
0.0349978
0.0039156
-0.0894397
0.00752482
-0.082379
0.0109004
-0.0769407
0.0140938
-0.0726633
0.0171424
-0.0692381
0.020074
-0.0664521
0.0229098
-0.0641542
0.0256656
-0.0622342
0.0283543
-0.0606101
-0.0592187
0.0309884
0.00336396
-0.0928038
0.00646503
-0.0854805
0.00936622
-0.079842
0.0121122
-0.0754093
0.0147357
-0.0718616
0.0172614
-0.0689781
0.0197092
-0.0666021
0.0220952
-0.0646202
0.0244341
-0.0629488
-0.0615252
0.0267405
0.00278928
-0.0955931
0.00536108
-0.0880522
0.00776782
-0.0822488
0.0100471
-0.0776884
0.0122262
-0.0740409
0.0143268
-0.0710787
0.0163657
-0.068641
0.0183571
-0.0666117
0.0203135
-0.0649054
-0.0634583
0.0222466
0.00219528
-0.0977886
0.00421962
-0.0900768
0.00611472
-0.0841439
0.00791025
-0.0794838
0.00962802
-0.0757588
0.0112854
-0.0727359
0.0128957
-0.0702512
0.0144697
-0.0681861
0.0160173
-0.0664531
-0.0649874
0.0175464
0.00158586
-0.0993745
0.00304824
-0.0915395
0.00441772
-0.0855134
0.00571559
-0.0807817
0.00695802
-0.0770011
0.00815711
-0.0739351
0.0093226
-0.0714168
0.0104623
-0.0693259
0.0115825
-0.0675735
-0.0660933
0.0126886
0.000965069
-0.10034
0.00185498
-0.0924299
0.00268852
-0.0863471
0.00347852
-0.081572
0.00423499
-0.0777575
0.0049652
-0.0746653
0.00567467
-0.0721265
0.00636832
-0.0700196
0.00704964
-0.0682548
-0.0667649
0.00772141
0.000337313
-0.100677
0.000648272
-0.0927412
0.00093954
-0.0866386
0.0012156
-0.0818481
0.00147975
-0.0780218
0.00173459
-0.07492
0.00198166
-0.0723738
0.00222284
-0.0702608
0.00245906
-0.0684912
0.00269102
-0.0669971
0.00780271
-0.00780271
0.0149849
-0.00718219
0.0216854
-0.00670059
0.0280039
-0.00631869
0.0340142
-0.00601027
0.0397719
-0.00575749
0.0453201
-0.00554802
0.0506937
-0.00537332
0.0559218
-0.00522784
-0.00510884
0.0610311
0.00775811
-0.0155609
0.0148994
-0.0143236
0.0215619
-0.0133632
0.0278449
-0.0126017
0.033821
-0.0119865
0.0395451
-0.0114817
0.0450592
-0.0110624
0.0503962
-0.0107106
0.0555814
-0.0104135
-0.0101612
0.0606333
0.00766905
-0.02323
0.0147287
-0.0213833
0.0213157
-0.0199502
0.0275277
-0.0188135
0.0334365
-0.017895
0.0390954
-0.0171405
0.0445454
-0.0165121
0.0498179
-0.0159829
0.0549382
-0.0155336
-0.0151501
0.0599273
0.0075358
-0.0307659
0.0144735
-0.028321
0.0209477
-0.0264244
0.0270544
-0.0249204
0.0328639
-0.0237045
0.038428
-0.0227047
0.0437859
-0.0218701
0.0489672
-0.0211643
0.0539949
-0.0205612
-0.0200426
0.0588877
0.00735859
-0.0381244
0.0141342
-0.0350964
0.0204587
-0.0327488
0.0264264
-0.030888
0.0321059
-0.0293839
0.0375477
-0.0281465
0.0427889
-0.0271115
0.0478572
-0.0262325
0.0527716
-0.0254756
-0.0248165
0.0575454
0.00713769
-0.045262
0.0137111
-0.0416698
0.0198493
-0.0388868
0.0256443
-0.0366829
0.0311635
-0.034903
0.0364568
-0.0334396
0.0415605
-0.0322153
0.0465008
-0.0311727
0.0512936
-0.0302681
-0.0294676
0.0559448
0.00687341
-0.0521353
0.0132048
-0.0480011
0.0191194
-0.0448014
0.0247075
-0.0422707
0.0300349
-0.0402306
0.0351521
-0.0385569
0.0400974
-0.0371606
0.0448996
-0.0359749
0.0495773
-0.0349458
-0.034026
0.0541358
0.00656621
-0.0587014
0.0126159
-0.0540508
0.0182695
-0.0504552
0.0236144
-0.0476154
0.0287152
-0.0453313
0.0336227
-0.0434643
0.0383787
-0.0419167
0.0430209
-0.0406171
0.0475858
-0.0395108
-0.0385491
0.0521086
0.00621705
-0.0649185
0.0119459
-0.0597797
0.0173011
-0.0558105
0.0223656
-0.0526799
0.027201
-0.0501665
0.0318556
-0.0481187
0.0363704
-0.0464314
0.040786
-0.0450328
0.0451552
-0.0438802
-0.0429663
0.0495721
0.00582749
0.0111979
0.0162186
0.0209668
0.025499
0.029857
0.0340707
0.038156
0.0421035
0.0458453
0.0625915
-0.00156002
0.0638635
-0.0012719
0.064896
-0.00103265
0.0657277
-0.000831852
0.0663903
-0.000662548
0.0669092
-0.000519351
0.0673068
-0.000397885
0.067601
-0.000294422
0.0678069
-0.000205658
0.0679361
-0.000128833
0.0679979
-6.15729e-005
0.0679997
-1.65552e-006
0.0679477
5.24541e-005
0.0678459
0.000101878
0.0676983
0.000147813
0.0675077
0.000190968
0.0672761
0.000231821
0.0670053
0.000270984
0.0666964
0.000308978
0.00034615
0.0621805
-0.00310729
0.0634619
-0.0025529
0.0645125
-0.00208275
0.0653668
-0.00168557
0.0660546
-0.00134965
0.0666009
-0.00106534
0.0670276
-0.000824204
0.0673522
-0.000618893
0.067589
-0.000442672
0.0677491
-0.000289449
0.0678418
-0.000154469
0.0678735
-3.39394e-005
0.06785
7.54178e-005
0.067776
0.000175781
0.0676549
0.000268914
0.0674893
0.000356364
0.067282
0.00043929
0.0670349
0.000518581
0.0667489
0.000595145
0.000670036
0.0614948
-0.00467475
0.0628013
-0.0038594
0.0638804
-0.00316201
0.0647675
-0.00257323
0.065493
-0.00207529
0.066082
-0.00165424
0.0665552
-0.00129757
0.0669297
-0.000993308
0.0672187
-0.000730922
0.0674314
-0.000501853
0.0675759
-0.000298725
0.0676586
-0.0001162
0.0676842
4.97285e-005
0.0676577
0.000202379
0.0675828
0.000344147
0.0674624
0.0004769
0.0672992
0.000602417
0.0670956
0.000722235
0.0668532
0.000837679
0.000950391
0.0604729
-0.00625962
0.0618147
-0.00520111
0.0629354
-0.00428247
0.063872
-0.00350951
0.064655
-0.00285818
0.0653095
-0.00230898
0.0658553
-0.00184338
0.0663064
-0.00144454
0.0666729
-0.00109785
0.0669632
-0.000792127
0.0671831
-0.000518991
0.0673388
-0.000272113
0.0674353
-4.6967e-005
0.0674777
0.000160119
0.0674699
0.000352014
0.0674156
0.000531206
0.067318
0.000700049
0.0671796
0.000860651
0.0670022
0.00101497
0.00116543
0.0591378
-0.00785224
0.0605175
-0.0065808
0.0616882
-0.00545307
0.0626896
-0.00451089
0.0635527
-0.00372096
0.0642999
-0.00305562
0.0649449
-0.00248856
0.0654979
-0.0019971
0.0659649
-0.0015648
0.0663525
-0.00117956
0.0666666
-0.000833015
0.0669134
-0.000518944
0.067099
-0.000232497
0.0672289
3.03164e-005
0.0673078
0.000273039
0.0673402
0.000498964
0.0673294
0.000711112
0.0672777
0.000912288
0.0671874
0.00110523
0.00129321
0.0575196
-0.00942708
0.0589293
-0.00799045
0.0601579
-0.0066818
0.061247
-0.00559995
0.0622199
-0.00469355
0.0630873
-0.00392316
0.0638548
-0.00325593
0.0645258
-0.00266838
0.065106
-0.0021451
0.0656021
-0.00167582
0.066022
-0.00125296
0.0663733
-0.00087043
0.0666635
-0.000522694
0.0668987
-0.000204888
0.0670841
8.76112e-005
0.0672241
0.000359115
0.0673218
0.000613527
0.0673795
0.000854554
0.067399
0.00108576
0.00131116
0.0556521
-0.0109432
0.0570767
-0.00941517
0.0583884
-0.00799354
0.0596036
-0.00681527
0.0607163
-0.00580616
0.061719
-0.00492629
0.0626113
-0.00414826
0.0633984
-0.00345549
0.0640902
-0.00283662
0.0646974
-0.0022829
0.0652306
-0.00178617
0.0656991
-0.00133887
0.0661103
-0.000933933
0.0664704
-0.000564879
0.0667839
-0.00022574
0.0670544
8.8881e-005
0.0672842
0.000383866
0.067475
0.000663803
0.067628
0.000932974
0.00119594
0.0535543
-0.0123889
0.0550108
-0.0108715
0.0564719
-0.0094547
0.0578461
-0.00818922
0.0590921
-0.007052
0.0602044
-0.00603846
0.0611948
-0.00513861
0.0620807
-0.00434128
0.0628784
-0.00363454
0.063602
-0.00300655
0.064262
-0.00244613
0.0648663
-0.00194302
0.0654207
-0.00148819
0.0659295
-0.00107346
0.0663957
-0.000691686
0.0668213
-0.000336593
0.0672079
-2.53001e-006
0.0675562
0.00031568
0.0678666
0.000622781
0.000923688
0.0511413
-0.0139581
0.0528083
-0.0125388
0.0544694
-0.0111163
0.0559483
-0.00966855
0.0572559
-0.0083601
0.0584298
-0.00721258
0.0595009
-0.00620986
0.0604908
-0.00533136
0.0614137
-0.00455779
0.0622794
-0.00387241
0.0630944
-0.00326107
0.0638629
-0.00271154
0.0645881
-0.00221329
0.0652722
-0.00175724
0.0659165
-0.00133563
0.0665218
-0.000941686
0.0670887
-0.000569314
0.0676176
-0.000213067
0.0681085
0.000132013
0.000470866
0.0477126
-0.0158255
0.0495486
-0.0143746
0.05131
-0.0128773
0.0529629
-0.0113211
0.0544904
-0.00988754
0.0559017
-0.00862399
0.0572128
-0.00752119
0.0584387
-0.00655726
0.0595912
-0.00571012
0.0606791
-0.0049605
0.06171
-0.00429202
0.0626892
-0.00369082
0.0636212
-0.00314503
0.0645089
-0.00264467
0.0653547
-0.00218119
0.0661603
-0.00174713
0.0669271
-0.00133589
0.0676558
-0.000941719
0.0683472
-0.000559403
-0.000184094
0.0673353
-0.0145698
-0.068591
0.0661731
-0.0132125
0.0652132
-0.0119178
0.0645341
-0.0106426
0.0640833
-0.00943669
0.0637916
-0.00833261
0.0636076
-0.00733752
0.0634961
-0.00644584
0.063433
-0.00564709
0.0634019
-0.00492958
0.0633916
-0.00428182
0.0633943
-0.00369338
0.0634044
-0.00315492
0.0634181
-0.00265815
0.0634326
-0.00219565
0.0634463
-0.00176077
0.0634581
-0.00134759
0.0634672
-0.000950828
0.0634733
-0.000565599
-0.000187435
0.0686926
-0.013034
-0.0702283
0.0674679
-0.0119877
0.0664884
-0.0109383
0.06574
-0.0098942
0.0651873
-0.00888404
0.0647867
-0.0079321
0.0644993
-0.00705036
0.0642948
-0.00624158
0.0641505
-0.00550297
0.0640497
-0.0048288
0.06398
-0.0042122
0.0639328
-0.00364598
0.0639012
-0.00312326
0.0638806
-0.00263747
0.0638675
-0.0021825
0.0638595
-0.00175271
0.0638548
-0.00134296
0.0638524
-0.000948481
0.0638515
-0.000564737
-0.000187464
0.0697388
-0.0115079
-0.0712649
0.0685173
-0.0107662
0.0675325
-0.00995336
0.0667501
-0.00911187
0.0661393
-0.00827341
0.0656684
-0.00746125
0.065308
-0.00669005
0.0650334
-0.00596709
0.0648247
-0.00529434
0.0646663
-0.00467044
0.0645462
-0.00409218
0.0644555
-0.00355521
0.064387
-0.00305479
0.0643356
-0.00258604
0.0642973
-0.00214418
0.0642692
-0.00172468
0.0642493
-0.00132318
0.0642361
-0.000935432
0.0642287
-0.000557378
-0.000185133
0.0704806
-0.0101355
-0.0718529
0.0693301
-0.00961561
0.068374
-0.00899733
0.0675886
-0.00832682
0.0669515
-0.00763636
0.0664396
-0.00694927
0.066031
-0.0062814
0.0657062
-0.00564227
0.0654486
-0.00503679
0.0652445
-0.00446656
0.0650832
-0.00393094
0.0649559
-0.00342791
0.0648557
-0.00295459
0.0647774
-0.00250766
0.0647168
-0.00208359
0.0646707
-0.00167882
0.0646371
-0.00128972
0.0646142
-0.000912672
0.064601
-0.000544166
-0.000180807
0.0710005
-0.00893444
-0.0722015
0.0699484
-0.00856359
0.0690445
-0.00809354
0.0682791
-0.00756143
0.0676386
-0.00699576
0.0671075
-0.00641814
0.0666701
-0.00584402
0.0663117
-0.0052838
0.0660188
-0.00474399
0.0657801
-0.00422805
0.0655862
-0.00373711
0.0654292
-0.00327088
0.0653027
-0.00282801
0.0652015
-0.00240648
0.0651216
-0.00200385
0.0650598
-0.0016174
0.0650141
-0.0012442
0.0649827
-0.000881295
0.0649643
-0.000525781
-0.000174751
0.0713713
-0.00787944
-0.0724264
0.0704184
-0.00761078
0.0695766
-0.00725164
0.0688447
-0.00682939
0.0682162
-0.0063672
0.0676816
-0.00588357
0.0672304
-0.00539267
0.0668515
-0.00490491
0.0665347
-0.00442735
0.0662711
-0.00396441
0.0660525
-0.0035185
0.0658721
-0.00309048
0.0657242
-0.00268016
0.0656041
-0.00228654
0.065508
-0.00190805
0.065433
-0.0015427
0.065377
-0.00118827
0.0653382
-0.00084247
0.0653154
-0.000502932
-0.000167213
0.07164
-0.00694416
-0.0725753
0.0707776
-0.00674841
0.0699989
-0.00647291
0.0693069
-0.00613746
0.0686998
-0.00576011
0.0681725
-0.00535616
0.0677181
-0.00493814
0.067329
-0.00451578
0.0669977
-0.00409605
0.066717
-0.00368375
0.0664805
-0.00328199
0.0662824
-0.00289245
0.0661178
-0.00251571
0.0659826
-0.00215154
0.0658734
-0.00179906
0.0657875
-0.00145694
0.0657228
-0.00112363
0.0656777
-0.000797394
0.0656511
-0.000476334
-0.000158426
0.0718357
-0.00610784
-0.072672
0.0710531
-0.00596587
0.0703343
-0.00575424
0.0696843
-0.00548743
0.0691038
-0.00517939
0.0685905
-0.00484269
0.0681405
-0.00448805
0.0677488
-0.00412404
0.06741
-0.00375727
0.0671188
-0.00339256
0.06687
-0.00303331
0.0666592
-0.00268165
0.066482
-0.0023387
0.0663351
-0.00200478
0.0662155
-0.00167956
0.0661208
-0.00136229
0.0660491
-0.00105194
0.0659988
-0.000747233
0.065969
-0.000446666
-0.000148611
0.0719777
-0.00535457
-0.072731
0.0712647
-0.00525304
0.0706011
-0.00509069
0.0699923
-0.00487843
0.0694405
-0.0046272
0.0689452
-0.00434722
0.0685045
-0.00404739
0.0681155
-0.00373511
0.0677747
-0.00341638
0.067478
-0.00309589
0.0672217
-0.00277702
0.0670021
-0.00246213
0.0668159
-0.00215263
0.0666603
-0.00184923
0.0665327
-0.00155203
0.0664311
-0.00126074
0.0663538
-0.000974705
0.0662994
-0.000693003
0.066267
-0.000414502
-0.000137952
0.0720792
-0.00467182
-0.0727621
0.0714271
-0.00460084
0.0708134
-0.00447688
0.0702436
-0.00430836
0.0697204
-0.00410391
0.069245
-0.00387173
0.0688168
-0.00361914
0.0684343
-0.00335254
0.0680952
-0.00307724
0.0677969
-0.00279755
0.0675366
-0.00251675
0.0673116
-0.00223718
0.0671193
-0.00196043
0.0669575
-0.00168744
0.066824
-0.00141864
0.0667172
-0.001154
0.0666355
-0.000893195
0.0665779
-0.000635579
0.0665436
-0.000380356
-0.000126618
0.0721502
-0.00404944
-0.0727726
0.071551
-0.00400152
0.0709819
-0.00390763
0.070448
-0.00377434
0.0699526
-0.0036085
0.0694976
-0.00341663
0.0690834
-0.00320483
0.0687096
-0.00297855
0.0683749
-0.00274246
0.0680777
-0.00250036
0.0678162
-0.00225525
0.0675883
-0.00200941
0.0673923
-0.00176448
0.0672263
-0.00152151
0.0670887
-0.00128111
0.066978
-0.00104347
0.0668931
-0.00080845
0.0668331
-0.00057569
0.0667973
-0.000344673
-0.000114763
0.0721981
-0.00347895
-0.0727685
0.0716449
-0.00344826
0.0711152
-0.00337787
0.0706139
-0.003273
0.0701445
-0.00313906
0.0697094
-0.00298136
0.0693097
-0.00280495
0.0689457
-0.00261441
0.068617
-0.00241373
0.0683228
-0.00220619
0.068062
-0.00199449
0.0678333
-0.00178076
0.0676353
-0.00156657
0.0674667
-0.00135304
0.0673263
-0.00114082
0.067213
-0.000930243
0.0671258
-0.000721348
0.0670641
-0.000513988
0.0670272
-0.00030786
-0.000102528
0.0722288
-0.00295296
-0.0727548
0.0717153
-0.00293479
0.0712201
-0.00288263
0.0707478
-0.00280069
0.0703022
-0.00269328
0.0698858
-0.00256476
0.0695002
-0.00241926
0.0691463
-0.00226053
0.0688245
-0.0020919
0.0685345
-0.00191619
0.0682757
-0.00173577
0.0680475
-0.00155256
0.0678488
-0.00136803
0.0676789
-0.00118322
0.0675369
-0.000998818
0.0674219
-0.00081523
0.0673332
-0.000632638
0.0672702
-0.00045104
0.0672326
-0.00027027
-9.00317e-005
0.072247
-0.00246478
-0.0727353
0.0717675
-0.00245523
0.071302
-0.00241711
0.0708552
-0.00235376
0.0704307
-0.00226864
0.0700313
-0.00216526
0.0696589
-0.0020469
0.069315
-0.00191662
0.0690002
-0.00177714
0.0687149
-0.00163087
0.0684589
-0.00147983
0.068232
-0.00132569
0.0680336
-0.00116973
0.0678633
-0.00101292
0.0677205
-0.000855916
0.0676045
-0.000699169
0.0675148
-0.000542942
0.067451
-0.000387308
0.0674128
-0.000232179
-7.73636e-005
0.0722565
-0.00200814
-0.0727131
0.0718056
-0.00200418
0.0713654
-0.00197678
0.0709403
-0.0019286
0.0705341
-0.00186237
0.0701496
-0.0017808
0.0697892
-0.00168649
0.0694544
-0.00158187
0.0691465
-0.00146915
0.0688659
-0.0013503
0.0686131
-0.00122699
0.068388
-0.00110062
0.0681904
-0.000972261
0.0680203
-0.000842749
0.0678772
-0.000712717
0.0677607
-0.000582617
0.0676704
-0.000452721
0.0676061
-0.000323121
0.0675676
-0.000193777
-6.45832e-005
0.0722605
-0.00157742
-0.0726912
0.071833
-0.00157654
0.0714135
-0.00155724
0.0710065
-0.00152153
0.0706157
-0.00147147
0.0702439
-0.00140909
0.0698938
-0.00133638
0.0695672
-0.0012552
0.0692653
-0.0011673
0.0689892
-0.00107421
0.0687395
-0.000977254
0.0685163
-0.00087752
0.06832
-0.000775888
0.0681504
-0.000673067
0.0680073
-0.000569616
0.0678906
-0.000465939
0.0678
-0.000362267
0.0677355
-0.000258682
0.0676968
-0.00015518
-5.17266e-005
0.0722614
-0.00116713
-0.0726716
0.0718523
-0.00116736
0.0714492
-0.00115412
0.0710566
-0.00112883
0.070678
-0.00109287
0.0703167
-0.00104769
0.069975
-0.000994706
0.0696551
-0.000935279
0.0693584
-0.000870676
0.0690862
-0.000802023
0.0688392
-0.000730286
0.0686179
-0.000656272
0.0684228
-0.000580663
0.0682538
-0.000504027
0.068111
-0.000426812
0.0679943
-0.000349323
0.0679036
-0.000271727
0.067839
-0.000194095
0.0678003
-0.000116453
-3.88169e-005
0.0722611
-0.000771994
-0.0726562
0.0718655
-0.000771717
0.0714745
-0.000763113
0.0710926
-0.000746786
0.0707232
-0.00072349
0.0703696
-0.000694097
0.0700344
-0.000659504
0.0697197
-0.000620581
0.0694271
-0.000578144
0.0691579
-0.00053292
0.0689132
-0.000485545
0.0686936
-0.000436565
0.0684994
-0.000386456
0.068331
-0.000335615
0.0681885
-0.000284338
0.0680719
-0.000232818
0.0679813
-0.000181157
0.0679166
-0.000129415
0.0678779
-7.76404e-005
-2.5873e-005
0.0722614
-0.000386505
-0.0726469
0.0718741
-0.000384519
0.0714909
-0.00037985
0.0711158
-0.000371706
0.0707526
-0.000360221
0.0704042
-0.000345742
0.0700733
-0.000328671
0.0697621
-0.000309422
0.0694723
-0.000288388
0.0692053
-0.000265926
0.0689622
-0.000242358
0.0687437
-0.000217971
0.0685503
-0.000193014
0.0683823
-0.000167685
0.06824
-0.000142118
0.0681235
-0.000116396
0.068033
-9.05681e-005
0.0679684
-6.46823e-005
0.0679297
-3.87855e-005
-1.29147e-005
0.0722634
-0.07265
0.0718788
0.071499
0.0711273
0.0707671
0.0704213
0.0700926
0.0697831
0.0694948
0.0692289
0.0689866
0.0687686
0.0685756
0.0684079
0.0682657
0.0681494
0.0680589
0.0679943
0.0679556
0.0657559
0.00265341
-0.0657182
0.0658718
0.00760576
0.0660612
0.0124993
0.066316
0.0172917
0.0666231
0.0219396
0.0669644
0.0263992
0.067319
0.0306334
0.0676763
0.0346403
0.0680831
0.0385898
0.0422061
0.064696
0.00258941
-0.0646318
0.0648902
0.00741167
0.0652161
0.0121735
0.0656758
0.0168323
0.0662692
0.0213463
0.0669881
0.0256802
0.0678008
0.0298209
0.0686209
0.03382
0.0693986
0.0378122
0.0413763
0.063781
0.00250267
-0.0636939
0.0640404
0.00715232
0.0644729
0.011741
0.0650765
0.0162286
0.0658416
0.0205811
0.066741
0.0247805
0.0677216
0.0288402
0.0687347
0.0328066
0.0699091
0.0366377
0.0400204
0.0629836
0.00239817
-0.0628789
0.0632919
0.00684416
0.0638003
0.0112328
0.0644986
0.0155302
0.0653656
0.0197138
0.0663663
0.0237796
0.0674671
0.0277393
0.0686932
0.0315804
0.0701746
0.0351563
0.038342
0.0622827
0.00228075
-0.0621655
0.0626245
0.0065021
0.0631828
0.0106745
0.0639418
0.0147711
0.0648777
0.0187777
0.0659659
0.0226911
0.0672048
0.0265002
0.0686432
0.0301418
0.0703334
0.0334661
0.0364739
0.0616633
0.00215506
-0.0615375
0.0620274
0.00613825
0.0626194
0.0100826
0.0634228
0.0139677
0.0644191
0.0177815
0.0655985
0.0215116
0.066976
0.0251229
0.068585
0.0285326
0.0704222
0.0316291
0.0344696
0.0611152
0.00202337
-0.0609834
0.0614948
0.0057588
0.0621123
0.00946531
0.0629539
0.013126
0.064009
0.0167265
0.0652777
0.0202429
0.0667752
0.0236255
0.0685121
0.0267957
0.0704599
0.0296815
0.0323543
0.060631
0.00188718
-0.0604944
0.0610228
0.00536729
0.061662
0.00882621
0.0625396
0.0122487
0.0636507
0.0156155
0.0649992
0.0188944
0.0665929
0.0220318
0.0684256
0.024963
0.0704619
0.0276453
0.030144
0.0602048
0.00174663
-0.0600643
0.0606075
0.00496458
0.061267
0.00816659
0.0621783
0.0113373
0.0633402
0.0144536
0.0647555
0.017479
0.066424
0.0203634
0.0683301
0.0230572
0.0704395
0.0255359
0.0278524
0.0598318
0.00160236
-0.0596875
0.0602448
0.00455174
0.0609236
0.00748792
0.0618657
0.010395
0.0630715
0.013248
0.0645407
0.0160098
0.0662669
0.0186373
0.0682305
0.0210938
0.0704011
0.0233652
0.0254915
0.0595076
0.00145439
-0.0593595
0.0599305
0.00412884
0.0606272
0.00679137
0.0615968
0.00942557
0.062839
0.0120059
0.0643509
0.0144982
0.0661218
0.0168665
0.0681313
0.0190842
0.0703531
0.0211433
0.0230721
0.0592279
0.00130294
-0.0590763
0.0596602
0.00369653
0.0603732
0.00607851
0.0613664
0.00843238
0.0626383
0.0107339
0.0641836
0.0129531
0.0659895
0.0150607
0.0680361
0.0170376
0.0703005
0.018879
0.020604
0.0589891
0.00114806
-0.0588342
0.05943
0.00325549
0.0601574
0.00535114
0.0611704
0.00741922
0.0624662
0.0094379
0.0640377
0.0113816
0.0658711
0.0132274
0.0679476
0.0149612
0.0702468
0.0165799
0.018096
0.0587875
0.000990056
-0.0586299
0.0592363
0.00280656
0.0599759
0.00461131
0.0610054
0.00638985
0.0623204
0.00812304
0.0639123
0.00978974
0.0657673
0.0113724
0.0678679
0.0128607
0.0701952
0.0142528
0.015556
0.0586204
0.000829595
-0.0584601
0.0590758
0.00235109
0.0598259
0.00386127
0.0608687
0.00534737
0.0621988
0.00679312
0.0638068
0.00818183
0.0656789
0.0095003
0.0677984
0.0107413
0.0701479
0.0119033
0.0129909
0.058485
0.000667247
-0.0583225
0.0589462
0.00189019
0.0597049
0.00310276
0.0607584
0.0042941
0.0621003
0.00545114
0.0637208
0.00656132
0.0656063
0.00761493
0.0677405
0.00860694
0.070107
0.00953676
0.0104068
0.0583794
0.000503
-0.0582151
0.0588451
0.00142464
0.0596108
0.00233723
0.0606727
0.00323215
0.0620239
0.00409978
0.0636541
0.00493103
0.0655497
0.00571925
0.067695
0.00646142
0.0700741
0.00715766
0.00780935
0.0583018
0.000337291
-0.0581361
0.0587712
0.000955222
0.0595422
0.0015661
0.0606106
0.00216367
0.0619689
0.00274138
0.0636063
0.00329345
0.0655093
0.00381603
0.0676626
0.00430796
0.0700502
0.00477002
0.00520339
0.0582511
0.000170569
-0.0580845
0.0587231
0.000483176
0.0594981
0.000791019
0.0605714
0.00109044
0.0619348
0.00137788
0.0635774
0.0016507
0.0654854
0.00190777
0.0676438
0.00214951
0.0700363
0.00237739
0.0025927
0.05823
-0.0580594
0.0587133
0.0595042
0.0605946
0.0619724
0.0636229
0.0655306
0.0676801
0.0700574
0.0388184
0.0506991
-0.0471032
-0.0424143
0.0351636
0.05186
-0.0482051
0.0314123
0.0532315
-0.0494804
0.0275433
0.0548634
-0.0509944
0.0235351
0.0568236
-0.0528154
0.0193598
0.0592047
-0.0550294
0.0149799
0.0621346
-0.0577548
0.0103447
0.0657943
-0.0611592
0.00538425
0.0704471
-0.0654865
0.0764867
-0.0711023
0.0353963
0.0539434
-0.0386407
0.0320735
0.0551827
0.0286568
0.0566482
0.0251305
0.0583899
0.0214754
0.0604788
0.0176666
0.0630136
0.0136702
0.0661309
0.0094404
0.0700243
0.00491364
0.0749742
0.0814004
0.0317642
0.0568048
-0.0346257
0.0287971
0.0581496
0.0257333
0.0597121
0.0225668
0.0615562
0.019284
0.0637617
0.0158632
0.0664345
0.0122744
0.0697199
0.00847632
0.0738226
0.00441166
0.0790388
0.0858119
0.0280256
0.0593946
-0.0306155
0.0253801
0.0607951
0.0226658
0.0624268
0.019869
0.0643531
0.0169742
0.0666566
0.0139606
0.0694482
0.010801
0.0728798
0.00745805
0.0771654
0.00388144
0.0826153
0.0896935
0.0241045
0.0616628
-0.0263728
0.0218038
0.0630954
0.019456
0.0647748
0.0170453
0.0667636
0.0145561
0.0691461
0.0119684
0.072036
0.00925772
0.0755905
0.00639159
0.0800314
0.00332622
0.0856807
0.0930196
0.0199872
0.0635625
-0.0218868
0.018065
0.0650175
0.0161084
0.0667312
0.0141047
0.0687672
0.0120397
0.0712112
0.00989614
0.0741796
0.00765294
0.0778337
0.00528288
0.0824017
0.00274902
0.0882147
0.0957684
0.0156961
0.0650619
-0.0171956
0.0141795
0.0665342
0.0126374
0.0682731
0.0110604
0.070344
0.00943756
0.0728341
0.00775505
0.0758621
0.00599583
0.0795928
0.00413832
0.0842592
0.00215316
0.0901998
0.0979215
0.0112668
0.0661412
-0.0123461
0.0101747
0.0676259
0.00906501
0.0693826
0.00793126
0.0714777
0.00676547
0.0739998
0.00555799
0.0770697
0.00429642
0.0808543
0.00296498
0.0855904
0.00154251
0.0916219
0.0994637
0.00673799
0.0667883
-0.00738539
0.00608333
0.0682805
0.00541825
0.0700475
0.00473929
0.0721566
0.00404167
0.0746974
0.0033197
0.0777918
0.00256582
0.0816083
0.00177056
0.0863858
0.000921022
0.0924713
0.100385
0.0021495
-0.00235832
0.00193934
0.00172608
0.00150885
0.00128631
0.00105629
0.000816262
0.0005633
0.000292993
0.0566004
0.00521628
-0.0618167
0.0512748
0.00532562
0.045812
0.00546266
0.0401819
0.00563005
0.0343486
0.0058333
0.0282675
0.00608101
0.021882
0.0063857
0.0151165
0.00676533
0.00786994
0.0072468
0.00786992
0.0562265
0.010368
-0.0613781
0.0509501
0.0106025
0.0455291
0.0108838
0.0399375
0.0112218
0.0341415
0.0116295
0.028098
0.0121245
0.0217509
0.0127325
0.0150261
0.0134899
0.00782281
0.01445
0.0156926
0.0555204
0.0154434
-0.0605958
0.0503201
0.0158027
0.0449733
0.0162307
0.0394542
0.016741
0.0337304
0.0173532
0.0277605
0.0180946
0.0214899
0.0190032
0.014846
0.0201341
0.00772894
0.021567
0.0234213
0.0544904
0.0204048
-0.0594516
0.049398
0.0208953
0.0441552
0.0214732
0.0387394
0.0221568
0.0331204
0.0229724
0.0272584
0.0239565
0.021101
0.0251607
0.0145769
0.0266582
0.00758866
0.0285551
0.0310101
0.0531638
0.0252272
-0.0579861
0.048202
0.0258572
0.0430876
0.0265876
0.0378017
0.0274429
0.0323165
0.0284574
0.0265951
0.029678
0.0205862
0.0311697
0.0142204
0.0330238
0.00740286
0.0353725
0.0384131
0.0515745
0.0299072
-0.0562545
0.0467518
0.0306797
0.041781
0.0315584
0.0366467
0.0325776
0.0313229
0.0337814
0.0257732
0.035228
0.0199474
0.0369955
0.013778
0.0391932
0.00717223
0.0419785
0.0455852
0.049746
0.0344773
-0.054316
0.0450544
0.0353716
0.040237
0.0363762
0.0352749
0.0375396
0.0301401
0.0389161
0.0247939
0.0405739
0.0191864
0.0426028
0.0132509
0.0451285
0.00689734
0.0483319
0.0524824
0.0476462
0.0389993
-0.0521679
0.0430811
0.0399368
0.0384374
0.0410203
0.033678
0.042299
0.0287658
0.0438288
0.0236581
0.0456815
0.0183048
0.0479562
0.0126408
0.0507924
0.00657936
0.0543932
0.0590619
0.0451105
0.0434072
-0.0495182
0.0407543
0.0442933
0.0363508
0.0454236
0.0318459
0.0468039
0.0271988
0.0484761
0.022368
0.0505123
0.0173056
0.0530185
0.0119503
0.0561477
0.00621982
0.0601237
0.0652818
0.041947
-0.045643
0.0380352
0.0339783
0.0297875
0.0254482
0.020931
0.0161945
0.0111832
0.00582064
0.0704279
0.000282778
0.0704605
-3.27782e-005
0.0704765
-1.60974e-005
0.0704723
4.04462e-006
0.0704444
2.77856e-005
0.0703891
5.53769e-005
0.070302
8.71818e-005
0.0701785
0.000123727
0.0700128
0.000165797
0.0697982
0.00021453
0.0695268
0.000271483
0.0691882
0.000338616
0.0687698
0.00041834
0.0682562
0.000513527
0.0676285
0.000627495
0.0668643
0.000763976
0.0659369
0.00092728
0.064814
0.00112273
0.0634569
0.00135722
0.00164058
0.0704199
0.000573656
0.0704293
-4.22041e-005
0.0704214
-8.33891e-006
0.0703926
3.26112e-005
0.0703394
8.08785e-005
0.0702578
0.000136926
0.0701434
0.000201448
0.0699915
0.00027547
0.0697965
0.000360522
0.0695522
0.000458745
0.0692509
0.00057302
0.0688827
0.000707071
0.0684358
0.000865668
0.067895
0.00105464
0.0672422
0.00128072
0.0664549
0.00155141
0.0655072
0.00187507
0.0643685
0.00226137
0.0630037
0.00272194
0.00326604
0.0704063
0.000877904
0.070372
-8.20576e-006
0.0703202
4.3317e-005
0.0702472
0.000105627
0.0701492
0.000179061
0.0700221
0.000264335
0.0698611
0.000362505
0.0696614
0.000475083
0.0694177
0.000604155
0.0691238
0.000752559
0.0687726
0.000924122
0.0683555
0.00112405
0.0678618
0.00135926
0.0672778
0.00163852
0.0665862
0.00197228
0.0657651
0.00237238
0.0647884
0.0028517
0.0636253
0.00342461
0.0622386
0.00410891
0.00490912
0.0703857
0.00120274
0.0702861
9.11626e-005
0.0701689
0.000160363
0.0700304
0.000244025
0.0698668
0.000342708
0.0696736
0.000457593
0.0694457
0.000590258
0.0691778
0.000742756
0.0688643
0.000917636
0.0684988
0.00111811
0.0680746
0.00134844
0.0675842
0.00161457
0.0670191
0.00192471
0.0663679
0.00228985
0.0656158
0.00272429
0.0647428
0.0032452
0.0637228
0.00387148
0.0625241
0.00462335
0.0611071
0.00552598
0.00656471
0.0703573
0.001556
0.07017
0.000278502
0.0699655
0.000364884
0.0697407
0.000469014
0.0694915
0.000591906
0.0692135
0.000735516
0.0689012
0.000902293
0.0685487
0.00109505
0.0681491
0.00131698
0.0676952
0.00157169
0.0671798
0.00186367
0.0665957
0.00219877
0.0659356
0.00258503
0.0651916
0.00303391
0.0643539
0.00356196
0.0634076
0.00419143
0.0623299
0.00494923
0.0610889
0.00586451
0.0596419
0.00697318
0.00822011
0.0703203
0.00194629
0.0700217
0.000577113
0.069707
0.000679625
0.0693738
0.000802246
0.0690189
0.000946758
0.068638
0.00111632
0.0682254
0.00131463
0.0677747
0.00154564
0.0672778
0.00181357
0.0667263
0.00212296
0.066111
0.00247892
0.0654227
0.00288716
0.0646531
0.00335473
0.0637957
0.00389141
0.0628456
0.00451206
0.0617975
0.00523958
0.0606399
0.00610699
0.0593495
0.0071552
0.0578824
0.00844051
0.00984814
0.0702743
0.00238273
0.0698395
0.00101188
0.0693899
0.00112929
0.0689249
0.00126717
0.0684426
0.00142896
0.0679391
0.00161963
0.0674092
0.00184433
0.0668463
0.00210837
0.0662424
0.00241725
0.0655882
0.00277703
0.064873
0.00319427
0.0640845
0.00367587
0.06321
0.00422928
0.0622385
0.00486294
0.0611632
0.00558734
0.0599842
0.00641845
0.0587085
0.00738267
0.0573434
0.00852031
0.0558727
0.00991149
0.0114053
0.0702212
0.00287226
0.0696232
0.00160993
0.0690118
0.00174067
0.0683905
0.00188833
0.0677581
0.00206128
0.0671107
0.00226701
0.0664432
0.00251185
0.0657495
0.0028019
0.0650229
0.00314364
0.0642555
0.00354443
0.0634372
0.00401256
0.0625558
0.00455743
0.0615958
0.00518946
0.0605389
0.00591988
0.0593666
0.00675986
0.0580654
0.00771984
0.05664
0.00880834
0.0551326
0.0100279
0.0536405
0.0114038
0.0128784
0.0701705
0.00341243
0.069372
0.00240834
0.0685706
0.00254206
0.0677713
0.00268751
0.0669691
0.00286356
0.0661574
0.00307882
0.0653303
0.0033391
0.0644822
0.00364995
0.0636078
0.00401789
0.0627017
0.00445061
0.0617569
0.00495721
0.0607652
0.00554895
0.0597155
0.0062391
0.0585917
0.00704333
0.0573713
0.00798015
0.0560218
0.0090693
0.0545041
0.0103261
0.0528052
0.0117268
0.0511072
0.0131015
0.0144674
0.0701593
0.00396383
0.0690713
0.00349623
0.0680574
0.00355589
0.0670681
0.00367688
0.0660816
0.00385009
0.0650862
0.00407438