/*--------------------------------*- C++ -*----------------------------------*\
| =========                 |                                                 |
| \\      /  F ield         | OpenFOAM: The Open Source CFD Toolbox           |
|  \\    /   O peration     | Version:  2.1                                   |
|   \\  /    A nd           | Web:      www.OpenFOAM.org                      |
|    \\/     M anipulation  |                                                 |
\*---------------------------------------------------------------------------*/
/*   Windows 32 and 64 bit porting by blueCAPE: http://www.bluecape.com.pt   *\
|  Based on Windows porting (2.0.x v4) by Symscape: http://www.symscape.com   |
\*---------------------------------------------------------------------------*/
FoamFile
{
    version     2.0;
    format      ascii;
    class       volVectorField;
    location    "0";
    object      U;
}
// * * * * * * * * * * * * * * * * * * * * * * * * * * * * * * * * * * * * * //

dimensions      [0 1 -1 0 0 0 0];

internalField   nonuniform List<vector> 
2000
(
(1.12465 -0.949025 2.16458e-026)
(1.11391 -0.789393 8.6977e-025)
(1.10498 -0.666939 0)
(1.09791 -0.570506 0)
(1.09225 -0.493185 0)
(1.08767 -0.430225 -5.52588e-025)
(1.08394 -0.378278 3.17664e-025)
(1.08089 -0.334915 0)
(1.07837 -0.298289 9.73936e-025)
(1.07632 -0.266796 0)
(1.27335 -0.926387 8.591e-025)
(1.23792 -0.770472 1.73027e-024)
(1.21008 -0.650899 0)
(1.18815 -0.556763 0)
(1.1706 -0.481303 0)
(1.15635 -0.419874 -2.52592e-025)
(1.14462 -0.369204 6.77463e-025)
(1.13487 -0.326932 0)
(1.12672 -0.291317 1.00491e-024)
(1.11995 -0.26106 6.40294e-025)
(1.41675 -0.880845 9.07788e-025)
(1.35747 -0.732494 -6.80801e-027)
(1.31139 -0.618747 7.96306e-025)
(1.27513 -0.529208 -1.30671e-024)
(1.24611 -0.457437 7.76472e-025)
(1.22252 -0.399014 -2.27262e-025)
(1.20307 -0.350824 2.96584e-025)
(1.18682 -0.310634 5.4214e-025)
(1.17303 -0.27684 -1.09989e-024)
(1.1611 -0.248337 0)
(1.5513 -0.813482 -9.39381e-025)
(1.46962 -0.67637 -9.59788e-025)
(1.40642 -0.571252 9.72488e-025)
(1.35672 -0.488508 -8.35593e-025)
(1.31695 -0.422176 1.19151e-024)
(1.28463 -0.368157 0)
(1.258 -0.323553 8.46477e-025)
(1.23575 -0.286263 8.61799e-025)
(1.21693 -0.254726 -1.12475e-024)
(1.20075 -0.227732 0)
(1.67366 -0.725933 -4.82317e-025)
(1.5716 -0.603464 3.57702e-026)
(1.49282 -0.50958 1.05831e-025)
(1.4309 -0.435674 1.32707e-025)
(1.38138 -0.376415 0)
(1.34117 -0.32813 0)
(1.30806 -0.288216 0)
(1.28048 -0.25478 -1.99564e-025)
(1.25724 -0.226408 2.10286e-025)
(1.23747 -0.202011 -1.79473e-025)
(1.78078 -0.620339 5.1355e-025)
(1.66087 -0.515564 -5.19458e-025)
(1.56845 -0.435248 5.27978e-025)
(1.49585 -0.37202 1.10182e-025)
(1.43781 -0.321313 6.80453e-025)
(1.3907 -0.279979 -5.6721e-025)
(1.35197 -0.245785 -5.83468e-025)
(1.31976 -0.217115 1.65761e-025)
(1.29271 -0.192766 -9.06521e-029)
(1.26981 -0.171824 -4.44763e-025)
(1.86999 -0.499293 5.27806e-025)
(1.73521 -0.414832 -5.31278e-025)
(1.63143 -0.350092 5.04338e-025)
(1.54993 -0.299123 -4.33279e-026)
(1.4848 -0.258242 5.61814e-025)
(1.43197 -0.224909 -5.76159e-025)
(1.38856 -0.197327 -5.91966e-025)
(1.35251 -0.174198 0)
(1.32229 -0.15456 1.37716e-025)
(1.29676 -0.137688 -6.54788e-025)
(1.93905 -0.365783 8.06642e-025)
(1.79275 -0.303754 0)
(1.68018 -0.256212 0)
(1.59179 -0.218781 3.13365e-026)
(1.52118 -0.188757 -3.13068e-029)
(1.46392 -0.164275 -3.77567e-025)
(1.4169 -0.144018 -3.93088e-025)
(1.37787 -0.127036 2.66531e-025)
(1.34517 -0.112625 0)
(1.31757 -0.100262 -9.93972e-025)
(1.98623 -0.223116 2.71333e-025)
(1.83206 -0.185078 0)
(1.71348 -0.155925 0)
(1.62039 -0.132974 0)
(1.54603 -0.114565 0)
(1.48575 -0.0995534 -1.48638e-025)
(1.43625 -0.0871377 -3.06828e-025)
(1.39518 -0.0767347 3.15825e-025)
(1.36078 -0.0679144 -3.03059e-026)
(1.33174 -0.060359 -3.67036e-025)
(2.01033 -0.0748306 0)
(1.85214 -0.0617407 0)
(1.7305 -0.0517105 0)
(1.635 -0.0438141 -8.33067e-028)
(1.55872 -0.0374817 -9.69106e-028)
(1.49689 -0.032321 1.50423e-025)
(1.44613 -0.0280578 0)
(1.40401 -0.0244924 0)
(1.36873 -0.0214768 0)
(1.33894 -0.0189042 0)
(0.0991202 -0.0742531 0)
(0.2575 -0.0618156 0)
(0.378072 -0.0522548 0)
(0.47268 -0.0447127 1.92068e-026)
(0.548211 -0.0386562 2.22971e-026)
(0.609411 -0.0337199 -8.19426e-027)
(0.659646 -0.0296482 0)
(0.701361 -0.0262596 0)
(0.736376 -0.0234267 0)
(0.766088 -0.0210675 0)
(0.122399 -0.220961 -2.43526e-026)
(0.27696 -0.183945 0)
(0.394599 -0.155491 0)
(0.486898 -0.133043 0)
(0.560571 -0.115015 0)
(0.620249 -0.100318 2.45083e-026)
(0.669206 -0.0881868 4.10877e-026)
(0.709815 -0.0780749 -4.27505e-026)
(0.743823 -0.0695891 2.39336e-025)
(0.772529 -0.0624495 2.95162e-025)
(0.168403 -0.362316 -1.5923e-025)
(0.315416 -0.301604 0)
(0.427262 -0.254935 0)
(0.514998 -0.218114 -1.51039e-025)
(0.58501 -0.188538 1.51184e-028)
(0.641694 -0.164413 4.4344e-025)
(0.68816 -0.14448 4.7683e-025)
(0.726658 -0.127833 1.70572e-025)
(0.758851 -0.113813 0)
(0.785998 -0.101925 1.99702e-025)
(0.236035 -0.494886 -1.46298e-025)
(0.37195 -0.411929 1.51367e-025)
(0.475283 -0.348163 -3.67993e-026)
(0.55632 -0.297851 1.4829e-025)
(0.620965 -0.257425 -1.64453e-025)
(0.673276 -0.224431 1.69662e-025)
(0.716115 -0.197136 1.7515e-025)
(0.75155 -0.174301 0)
(0.781104 -0.155023 -4.6505e-025)
(0.805933 -0.13864 1.63745e-025)
(0.323679 -0.615442 -1.88893e-025)
(0.445203 -0.512231 1.86626e-025)
(0.537504 -0.432905 -1.87601e-025)
(0.609875 -0.370314 -2.89969e-025)
(0.667592 -0.320007 -5.28995e-025)
(0.714277 -0.27892 1.95621e-025)
(0.752473 -0.244885 1.99421e-025)
(0.784006 -0.216347 -4.32695e-025)
(0.810208 -0.192173 2.36143e-028)
(0.832069 -0.171546 -2.31598e-025)
(0.429233 -0.721036 2.01679e-025)
(0.533408 -0.600056 -7.58733e-026)
(0.612421 -0.507091 -2.24345e-025)
(0.674366 -0.433741 -2.81082e-025)
(0.723769 -0.374777 0)
(0.763734 -0.32659 0)
(0.79643 -0.28662 0)
(0.823395 -0.253013 4.20361e-025)
(0.845722 -0.22441 -4.41943e-025)
(0.864177 -0.199818 -6.57966e-025)
(0.550154 -0.809066 5.01116e-025)
(0.634428 -0.673247 5.4101e-025)
(0.698207 -0.568906 -5.51867e-025)
(0.74821 -0.486595 2.94022e-025)
(0.788112 -0.420433 -8.95021e-025)
(0.820432 -0.36635 0)
(0.846937 -0.321448 -2.33211e-025)
(0.868872 -0.283604 -2.26866e-025)
(0.887096 -0.251219 6.51107e-025)
(0.902135 -0.223064 0)
(0.683513 -0.87734 -6.06424e-025)
(0.745799 -0.729986 -1.0065e-026)
(0.792753 -0.616823 -4.0401e-025)
(0.829568 -0.527584 1.13722e-024)
(0.858982 -0.455882 -3.29738e-025)
(0.88288 -0.397299 3.35802e-025)
(0.90261 -0.348683 4.34169e-025)
(0.919169 -0.307704 1.01778e-025)
(0.933306 -0.272556 6.91783e-025)
(0.945548 -0.24173 0)
(0.826064 -0.924137 -6.72792e-025)
(0.864798 -0.768848 -1.36017e-024)
(0.89373 -0.649639 0)
(0.916409 -0.555677 0)
(0.934551 -0.480237 0)
(0.949354 -0.41868 3.18128e-025)
(0.9617 -0.367723 -4.29733e-025)
(0.972315 -0.32497 0)
(0.981923 -0.288608 -8.23525e-025)
(0.991521 -0.257141 -8.12221e-025)
(0.974324 -0.94825 -2.33597e-026)
(0.988514 -0.788832 -8.03891e-025)
(0.998661 -0.6665 0)
(1.00659 -0.570126 0)
(1.01293 -0.492812 0)
(1.01812 -0.429824 5.96384e-025)
(1.02247 -0.377848 -1.68538e-025)
(1.02616 -0.334558 0)
(1.02924 -0.29842 -8.60215e-025)
(1.03141 -0.2687 0)
(0.790473 -0.0186298 0)
(0.812398 -0.0158388 0)
(0.831226 -0.0135236 0)
(0.847409 -0.0115819 -7.01512e-026)
(0.86136 -0.00994586 -7.13109e-026)
(0.873416 -0.0085631 0)
(0.883862 -0.00739101 0)
(0.892936 -0.00639331 0)
(0.900835 -0.00553778 0)
(0.907718 -0.00479749 3.76095e-026)
(0.913709 -0.00414921 3.78583e-026)
(0.918905 -0.00357115 0)
(0.923386 -0.00304828 0)
(0.927211 -0.00256964 0)
(0.930422 -0.00212344 0)
(0.933056 -0.00170274 1.93397e-026)
(0.935137 -0.00130288 1.9383e-026)
(0.936683 -0.000917801 0)
(0.937706 -0.000542355 4.85962e-027)
(0.93821 -0.000173099 4.86224e-027)
(0.795744 -0.0552502 0)
(0.81647 -0.0471346 2.67328e-025)
(0.834458 -0.0403068 5.47395e-025)
(0.85002 -0.0345557 2.79225e-025)
(0.863505 -0.0297003 2.8459e-025)
(0.875218 -0.0255948 2.88585e-025)
(0.885417 -0.0221155 -1.46373e-025)
(0.894323 -0.0191549 -1.47888e-025)
(0.902114 -0.0166157 -1.49618e-025)
(0.90893 -0.0144118 -3.01487e-025)
(0.914884 -0.0124737 1.2922e-028)
(0.920062 -0.0107427 1.52828e-025)
(0.924529 -0.00917195 0)
(0.928342 -0.00772932 0)
(0.931544 -0.00638594 7.75895e-026)
(0.934163 -0.00511973 1.55658e-025)
(0.936229 -0.00391484 7.83183e-026)
(0.937762 -0.00275659 0)
(0.938774 -0.00163092 1.95769e-026)
(0.939269 -0.000523995 1.95873e-026)
(0.80757 -0.0905836 0)
(0.826306 -0.0775076 0)
(0.842636 -0.0663673 1.53144e-027)
(0.856853 -0.0569668 -1.2229e-027)
(0.869267 -0.0490228 0)
(0.880148 -0.0423093 0)
(0.889718 -0.0366253 0)
(0.898155 -0.031785 0)
(0.905605 -0.0276218 -7.08674e-028)
(0.91217 -0.0239942 1.5459e-028)
(0.917927 -0.0207846 3.06135e-025)
(0.922943 -0.017905 3.07902e-025)
(0.927271 -0.0152848 0)
(0.930954 -0.0128711 0)
(0.934037 -0.0106238 0)
(0.936549 -0.00851013 -7.88398e-026)
(0.938517 -0.00650169 -7.9176e-026)
(0.939967 -0.0045752 0)
(0.940916 -0.00270908 -4.93167e-028)
(0.941371 -0.000877027 -5.449e-028)
(0.825178 -0.124062 4.98585e-025)
(0.840899 -0.106398 5.22041e-025)
(0.854749 -0.0911713 -2.01714e-027)
(0.866978 -0.0783523 -5.46053e-025)
(0.877832 -0.0675447 -2.78532e-027)
(0.887521 -0.0584321 2.20795e-027)
(0.896206 -0.0507197 5.84595e-025)
(0.903996 -0.0441331 2.94404e-025)
(0.910956 -0.0384318 -6.02331e-025)
(0.917137 -0.0334272 -3.04052e-025)
(0.922577 -0.0289683 3.56558e-028)
(0.927313 -0.0249438 3.1247e-025)
(0.931388 -0.0212727 3.13984e-025)
(0.934843 -0.0178886 3.23147e-028)
(0.937715 -0.0147417 -5.12837e-028)
(0.940042 -0.0117909 0)
(0.941853 -0.00899729 -3.11816e-028)
(0.943174 -0.00632628 -1.01018e-027)
(0.944025 -0.00374673 -3.98408e-026)
(0.944419 -0.00121985 -4.23946e-026)
(0.848519 -0.154767 -9.65643e-025)
(0.860213 -0.133168 -5.05348e-025)
(0.870717 -0.114205 -5.27909e-025)
(0.880331 -0.0983313 4.67401e-027)
(0.889206 -0.0850121 -3.83399e-027)
(0.897442 -0.0738073 1.80928e-028)
(0.905057 -0.0642961 -5.89423e-025)
(0.912032 -0.0561066 -5.92809e-025)
(0.918336 -0.0489457 6.09483e-025)
(0.923951 -0.0425941 6.13988e-025)
(0.928885 -0.0368947 3.14801e-025)
(0.933162 -0.0317298 3.14847e-025)
(0.936822 -0.0270125 2.1669e-028)
(0.939907 -0.0226719 -3.24239e-025)
(0.942457 -0.0186487 -3.25778e-025)
(0.94451 -0.0148897 1.6522e-025)
(0.9461 -0.0113452 1.64919e-025)
(0.947249 -0.00796946 -9.19694e-028)
(0.947976 -0.00471889 2.32988e-027)
(0.948293 -0.0015404 -1.2907e-027)
(0.87748 -0.18167 9.66012e-025)
(0.884146 -0.157085 1.98415e-024)
(0.890472 -0.134977 1.01101e-024)
(0.897013 -0.116644 0)
(0.903685 -0.101311 0)
(0.910311 -0.0883597 -7.50171e-027)
(0.916671 -0.0772437 -5.87681e-025)
(0.922576 -0.0675351 8.73716e-027)
(0.927913 -0.0589394 6.05363e-025)
(0.932643 -0.0512508 0)
(0.936772 -0.044324 -6.39105e-025)
(0.940334 -0.0380469 -6.43203e-025)
(0.943373 -0.0323262 0)
(0.945932 -0.027082 -3.32972e-025)
(0.94805 -0.0222408 2.33747e-027)
(0.949758 -0.0177339 3.37469e-025)
(0.95108 -0.0134985 0)
(0.95203 -0.00947566 0)
(0.952622 -0.00560781 2.3357e-027)
(0.95286 -0.00182874 0)
(0.911748 -0.203598 9.22964e-025)
(0.912519 -0.177353 -2.0359e-026)
(0.914209 -0.15321 -1.99884e-024)
(0.917654 -0.133278 -1.03545e-024)
(0.922079 -0.116424 1.09404e-024)
(0.926837 -0.101928 5.34183e-025)
(0.931471 -0.0892449 -5.75925e-025)
(0.935739 -0.0780126 -6.06599e-025)
(0.939556 -0.0679918 -1.23704e-024)
(0.942924 -0.059014 -1.26761e-024)
(0.945875 -0.0509412 -6.41869e-025)
(0.948452 -0.0436532 -1.19194e-027)
(0.950688 -0.0370397 -3.38762e-025)
(0.952607 -0.0310009 -3.39051e-025)
(0.954228 -0.0254434 -1.46556e-028)
(0.955558 -0.0202814 1.51996e-028)
(0.9566 -0.0154372 0)
(0.957356 -0.0108372 -1.77048e-025)
(0.957822 -0.00641182 -1.7676e-025)
(0.957993 -0.00208503 0)
(0.950383 -0.219669 8.84566e-025)
(0.945289 -0.193515 -2.80323e-026)
(0.943052 -0.169196 3.73111e-026)
(0.943667 -0.14832 -4.39957e-026)
(0.945329 -0.13001 -2.14957e-024)
(0.947238 -0.113867 -1.10419e-024)
(0.949086 -0.0995632 -4.47681e-027)
(0.950815 -0.0868611 0)
(0.952448 -0.0755623 -2.98578e-027)
(0.954015 -0.0654915 6.47216e-025)
(0.955529 -0.056484 6.50543e-025)
(0.95698 -0.0483873 6.79075e-025)
(0.958351 -0.0410636 6.83541e-025)
(0.959616 -0.0343869 -9.3565e-028)
(0.960748 -0.0282446 3.59281e-025)
(0.96172 -0.0225364 3.60046e-025)
(0.962508 -0.0171716 0)
(0.963093 -0.0120663 9.71539e-028)
(0.963458 -0.00714304 6.1962e-028)
(0.963587 -0.00232028 0)
(0.990647 -0.231083 -8.38032e-025)
(0.983037 -0.206803 9.00515e-025)
(0.978591 -0.183383 9.12699e-025)
(0.975156 -0.161022 -1.01478e-024)
(0.972007 -0.140863 -1.03208e-024)
(0.969349 -0.12305 0)
(0.967329 -0.107371 -7.44839e-027)
(0.965971 -0.093565 0)
(0.965219 -0.0813763 0)
(0.96497 -0.0705677 0)
(0.96511 -0.0609294 -1.01516e-027)
(0.965526 -0.0522747 -1.92119e-027)
(0.966119 -0.0444413 -7.18744e-025)
(0.966802 -0.037286 -1.45581e-024)
(0.967501 -0.0306848 -3.62059e-025)
(0.968155 -0.0245297 3.7357e-025)
(0.968718 -0.0187234 3.83502e-025)
(0.969154 -0.013178 3.84267e-025)
(0.969436 -0.0078132 5.87341e-028)
(0.969546 -0.00254777 0)
(1.02224 -0.24045 -7.78192e-025)
(1.01259 -0.217737 -7.76712e-025)
(1.00382 -0.194642 4.70996e-027)
(0.995274 -0.170883 9.71372e-025)
(0.98848 -0.149201 9.80866e-025)
(0.983399 -0.130139 0)
(0.979728 -0.113496 -2.72173e-027)
(0.977183 -0.0989357 -1.2289e-024)
(0.975515 -0.0861298 -5.91397e-025)
(0.974515 -0.0747932 6.46833e-025)
(0.974014 -0.064684 1.47877e-027)
(0.973871 -0.0555957 0)
(0.973973 -0.0473506 0)
(0.974226 -0.039798 -7.62445e-025)
(0.974557 -0.0328086 -7.64028e-025)
(0.974905 -0.0262697 -4.50653e-028)
(0.975226 -0.020081 4.01338e-025)
(0.975489 -0.0141538 4.01842e-025)
(0.97567 -0.00840774 1.01845e-025)
(0.975761 -0.00276555 1.01877e-025)
(1.05133 -0.234527 0)
(1.03263 -0.212899 0)
(1.01622 -0.191428 0)
(1.00354 -0.16966 0)
(0.994803 -0.149338 0)
(0.98906 -0.131082 0)
(0.985381 -0.11489 0)
(0.983095 -0.100556 0)
(0.981745 -0.087836 0)
(0.981016 -0.0764933 0)
(0.980696 -0.0663148 0)
(0.980637 -0.0571138 0)
(0.980736 -0.0487272 0)
(0.980921 -0.0410141 0)
(0.981138 -0.0338514 0)
(0.981357 -0.02713 0)
(0.981554 -0.0207534 0)
(0.981715 -0.014636 0)
(0.981833 -0.00869979 0)
(0.981906 -0.00287261 0)
(1.0745 -0.213504 0)
(1.05315 -0.194914 0)
(1.0361 -0.176782 0)
(1.02273 -0.158843 0)
(1.01267 -0.141703 0)
(1.0053 -0.125801 0)
(0.999974 -0.111284 0)
(0.99617 -0.098132 0)
(0.993472 -0.0862411 0)
(0.991576 -0.0754771 0)
(0.990257 -0.0656978 0)
(0.989353 -0.056767 0)
(0.988744 -0.0485591 0)
(0.98834 -0.0409595 0)
(0.988079 -0.0338632 0)
(0.987916 -0.0271753 0)
(0.987818 -0.0208103 0)
(0.987763 -0.0146904 0)
(0.987737 -0.00874268 0)
(0.98773 -0.00289969 0)
(1.09061 -0.189821 0)
(1.06935 -0.175992 0)
(1.05229 -0.161588 0)
(1.03862 -0.147004 0)
(1.02785 -0.132706 0)
(1.01948 -0.119061 0)
(1.01305 -0.106276 0)
(1.00814 -0.0944291 0)
(1.0044 -0.0835128 0)
(1.00156 -0.0734728 0)
(0.999406 -0.0642311 0)
(0.997776 -0.0556983 0)
(0.996544 -0.0477847 0)
(0.995616 -0.0404017 0)
(0.994923 -0.0334651 0)
(0.99441 -0.0268962 0)
(0.994039 -0.0206215 0)
(0.993783 -0.0145713 0)
(0.993623 -0.0086791 0)
(0.993548 -0.00288188 0)
(1.10089 -0.167403 0)
(1.08138 -0.157645 0)
(1.06509 -0.146576 0)
(1.05162 -0.134881 0)
(1.04061 -0.123056 0)
(1.03173 -0.111459 0)
(1.02461 -0.100329 0)
(1.01893 -0.0897937 0)
(1.01443 -0.0799071 0)
(1.01086 -0.070671 0)
(1.00803 -0.0620556 0)
(1.0058 -0.0540116 0)
(1.00404 -0.0464801 0)
(1.00266 -0.0393977 0)
(1.00158 -0.0327001 0)
(1.00076 -0.0263247 0)
(1.00014 -0.0202097 0)
(0.999706 -0.0142943 0)
(0.999427 -0.00852 0)
(0.999291 -0.00283039 0)
(1.10761 -0.147498 0)
(1.09018 -0.140609 0)
(1.07505 -0.132191 0)
(1.06214 -0.122889 0)
(1.05127 -0.113173 0)
(1.04221 -0.103391 0)
(1.03472 -0.0937852 0)
(1.02856 -0.0845087 0)
(1.02352 -0.0756503 0)
(1.01941 -0.0672493 0)
(1.01607 -0.0593093 0)
(1.01335 -0.0518124 0)
(1.01116 -0.044726 0)
(1.0094 -0.0380088 0)
(1.008 -0.0316147 0)
(1.0069 -0.025495 0)
(1.00607 -0.0195989 0)
(1.00547 -0.0138756 0)
(1.00509 -0.00827561 0)
(1.0049 -0.00275009 0)
(1.11222 -0.130048 0)
(1.09669 -0.125102 0)
(1.0828 -0.118689 0)
(1.07063 -0.111307 0)
(1.06011 -0.103357 0)
(1.05111 -0.0951487 0)
(1.04349 -0.0869112 0)
(1.03707 -0.0788055 0)
(1.03169 -0.0709366 0)
(1.0272 -0.0633654 0)
(1.02347 -0.0561192 0)
(1.02038 -0.0492025 0)
(1.01784 -0.0426034 0)
(1.01577 -0.0362986 0)
(1.0141 -0.030257 0)
(1.01278 -0.0244421 0)
(1.01176 -0.0188142 0)
(1.01103 -0.0133326 0)
(1.01055 -0.00795668 0)
(1.01032 -0.00264495 0)
(1.11545 -0.114654 0)
(1.10154 -0.111062 0)
(1.08885 -0.106154 0)
(1.07747 -0.100293 0)
(1.06743 -0.0937998 0)
(1.05865 -0.0869347 0)
(1.05106 -0.0799046 0)
(1.04453 -0.0728652 0)
(1.03896 -0.065925 0)
(1.03423 -0.0591554 0)
(1.03023 -0.052599 0)
(1.02687 -0.0462755 0)
(1.02406 -0.0401879 0)
(1.02174 -0.0343267 0)
(1.01985 -0.0286729 0)
(1.01834 -0.023201 0)
(1.01718 -0.0178817 0)
(1.01633 -0.0126837 0)
(1.01577 -0.00757423 0)
(1.0155 -0.00251868 0)
(1.11771 -0.100952 0)
(1.10519 -0.0983398 0)
(1.09357 -0.094572 0)
(1.08299 -0.0899138 0)
(1.07347 -0.0846126 0)
(1.06501 -0.0788839 0)
(1.05756 -0.0729078 0)
(1.05105 -0.0668255 0)
(1.0454 -0.0607422 0)
(1.04052 -0.0547324 0)
(1.03635 -0.0488463 0)
(1.03279 -0.0431134 0)
(1.02979 -0.0375469 0)
(1.02729 -0.0321474 0)
(1.02522 -0.0269057 0)
(1.02357 -0.0218056 0)
(1.02228 -0.0168272 0)
(1.02134 -0.0119471 0)
(1.02072 -0.00713903 0)
(1.02041 -0.00237481 0)
(1.11926 -0.0886571 0)
(1.10792 -0.0867737 0)
(1.09727 -0.0838811 0)
(1.08743 -0.0801757 0)
(1.07846 -0.07585 0)
(1.07036 -0.0710802 0)
(1.06312 -0.0660182 0)
(1.0567 -0.0607874 0)
(1.05106 -0.0554852 0)
(1.04612 -0.0501855 0)
(1.04185 -0.0449405 0)
(1.03817 -0.039785 0)
(1.03503 -0.0347387 0)
(1.03238 -0.0298092 0)
(1.03019 -0.024995 0)
(1.02842 -0.0202881 0)
(1.02704 -0.0156753 0)
(1.02602 -0.0111396 0)
(1.02535 -0.00666079 0)
(1.02501 -0.00221645 0)
(1.12029 -0.0775501 0)
(1.10996 -0.0762158 0)
(1.10017 -0.0740013 0)
(1.09102 -0.0710561 0)
(1.08256 -0.0675315 0)
(1.07484 -0.0635702 0)
(1.06785 -0.0592976 0)
(1.06158 -0.0548201 0)
(1.056 -0.0502255 0)
(1.05107 -0.0455833 0)
(1.04675 -0.0409451 0)
(1.043 -0.0363472 0)
(1.03977 -0.0318129 0)
(1.03703 -0.0273547 0)
(1.03475 -0.0229769 0)
(1.03289 -0.0186771 0)
(1.03143 -0.0144474 0)
(1.03035 -0.010276 0)
(1.02964 -0.00614791 0)
(1.02929 -0.00204634 0)
(1.12092 -0.0674554 0)
(1.11147 -0.0665358 0)
(1.10243 -0.0648508 0)
(1.0939 -0.0625164 0)
(1.08594 -0.0596523 0)
(1.07859 -0.0563725 0)
(1.07187 -0.0527807 0)
(1.06577 -0.0489684 0)
(1.06029 -0.045013 0)
(1.0554 -0.0409772 0)
(1.05108 -0.0369094 0)
(1.0473 -0.0328457 0)
(1.04402 -0.0288107 0)
(1.04122 -0.02482 0)
(1.03887 -0.0208815 0)
(1.03695 -0.0169966 0)
(1.03544 -0.0131615 0)
(1.03432 -0.00936867 0)
(1.03358 -0.00560781 0)
(1.03321 -0.00186698 0)
(1.12126 -0.058229 0)
(1.11257 -0.057621 0)
(1.10419 -0.0563503 0)
(1.09622 -0.0545083 0)
(1.08871 -0.0521896 0)
(1.08171 -0.0494858 0)
(1.07526 -0.0464832 0)
(1.06935 -0.0432593 0)
(1.06399 -0.039881 0)
(1.05917 -0.0364032 0)
(1.05488 -0.03287 0)
(1.05109 -0.0293154 0)
(1.04779 -0.0257643 0)
(1.04496 -0.0222334 0)
(1.04257 -0.0187327 0)
(1.04061 -0.0152659 0)
(1.03906 -0.0118324 0)
(1.0379 -0.00842822 0)
(1.03714 -0.00504707 0)
(1.03676 -0.00168065 0)
(1.12139 -0.0497482 0)
(1.11335 -0.0493703 0)
(1.10555 -0.0484224 0)
(1.09806 -0.0469775 0)
(1.09096 -0.0451108 0)
(1.0843 -0.0428969 0)
(1.07809 -0.0404071 0)
(1.07237 -0.0377057 0)
(1.06715 -0.0348492 0)
(1.06242 -0.0318849 0)
(1.05817 -0.0288521 0)
(1.0544 -0.0257819 0)
(1.0511 -0.0226979 0)
(1.04825 -0.0196169 0)
(1.04584 -0.0165492 0)
(1.04385 -0.0135005 0)
(1.04228 -0.0104725 0)
(1.0411 -0.0074641 0)
(1.04032 -0.0044716 0)
(1.03994 -0.00148937 0)
(1.12138 -0.041904 0)
(1.11389 -0.0416896 0)
(1.10658 -0.0409913 0)
(1.09953 -0.0398675 0)
(1.09279 -0.0383785 0)
(1.08642 -0.0365847 0)
(1.08045 -0.0345439 0)
(1.07491 -0.0323086 0)
(1.06981 -0.0299255 0)
(1.06517 -0.027435 0)
(1.06098 -0.0248713 0)
(1.05725 -0.0222621 0)
(1.05396 -0.0196285 0)
(1.05111 -0.0169862 0)
(1.04869 -0.0143456 0)
(1.04668 -0.0117133 0)
(1.04509 -0.00909263 0)
(1.04391 -0.00648428 0)
(1.04312 -0.00388624 0)
(1.04272 -0.00129473 0)
(1.12128 -0.0345962 0)
(1.11426 -0.0344917 0)
(1.10737 -0.0339849 0)
(1.10068 -0.0331222 0)
(1.09425 -0.0319517 0)
(1.08813 -0.0305211 0)
(1.08237 -0.0288762 0)
(1.07699 -0.0270594 0)
(1.07202 -0.0251088 0)
(1.06747 -0.0230581 0)
(1.06334 -0.0209361 0)
(1.05965 -0.0187665 0)
(1.05638 -0.0165674 0)
(1.05353 -0.0143528 0)
(1.05111 -0.0121327 0)
(1.0491 -0.0099141 0)
(1.0475 -0.00770105 0)
(1.04631 -0.00549488 0)
(1.04551 -0.00329459 0)
(1.04512 -0.0010979 0)
(1.12114 -0.0277328 0)
(1.1145 -0.0276955 0)
(1.10795 -0.0273342 0)
(1.10156 -0.0266853 0)
(1.09539 -0.0257858 0)
(1.08949 -0.0246725 0)
(1.08391 -0.0233807 0)
(1.07867 -0.0219436 0)
(1.07381 -0.0203919 0)
(1.06934 -0.0187526 0)
(1.06528 -0.017049 0)
(1.06162 -0.0153001 0)
(1.05837 -0.0135212 0)
(1.05554 -0.0117242 0)
(1.05312 -0.00991832 0)
(1.05111 -0.00811016 0)
(1.04951 -0.0063036 0)
(1.04831 -0.00450001 0)
(1.04751 -0.00269904 0)
(1.04712 -0.000899609 0)
(1.121 -0.021228 0)
(1.11466 -0.021223 0)
(1.10838 -0.0209713 0)
(1.10222 -0.0204994 0)
(1.09626 -0.0198341 0)
(1.09054 -0.0190022 0)
(1.0851 -0.01803 0)
(1.07998 -0.0169425 0)
(1.07521 -0.0157629 0)
(1.07081 -0.0145119 0)
(1.0668 -0.0132071 0)
(1.06317 -0.0118633 0)
(1.05995 -0.0104924 0)
(1.05714 -0.00910434 0)
(1.05473 -0.00770697 0)
(1.05272 -0.00630572 0)
(1.05111 -0.00490369 0)
(1.04991 -0.00350205 0)
(1.04911 -0.00210097 0)
(1.04872 -0.000700317 0)
(1.12088 -0.0149983 0)
(1.11476 -0.014998 0)
(1.10868 -0.014829 0)
(1.1027 -0.0145071 0)
(1.09689 -0.0140488 0)
(1.0913 -0.013472 0)
(1.08597 -0.0127946 0)
(1.08094 -0.0120339 0)
(1.07624 -0.011206 0)
(1.0719 -0.0103252 0)
(1.06792 -0.00940395 0)
(1.06433 -0.00845264 0)
(1.06113 -0.00748027 0)
(1.05833 -0.00649429 0)
(1.05592 -0.00550046 0)
(1.05392 -0.00450262 0)
(1.05232 -0.00350287 0)
(1.05111 -0.00250222 0)
(1.05032 -0.00150123 0)
(1.04992 -0.00050035 0)
(1.12081 -0.00896052 0)
(1.11483 -0.00894301 0)
(1.10887 -0.00884035 0)
(1.103 -0.00865108 0)
(1.09729 -0.00838206 0)
(1.09179 -0.00804273 0)
(1.08654 -0.00764313 0)
(1.08157 -0.0071932 0)
(1.07692 -0.00670227 0)
(1.07261 -0.00617875 0)
(1.06867 -0.00563003 0)
(1.0651 -0.00506256 0)
(1.06191 -0.00448196 0)
(1.05912 -0.00389281 0)
(1.05672 -0.00329847 0)
(1.05472 -0.00270102 0)
(1.05312 -0.00210168 0)
(1.05192 -0.00150127 0)
(1.05112 -0.000900507 0)
(1.05072 -0.000300007 0)
(1.12085 -0.00298946 0)
(1.11488 -0.0029741 0)
(1.10897 -0.00293798 0)
(1.10316 -0.00287499 0)
(1.0975 -0.00278616 0)
(1.09203 -0.00267417 0)
(1.08682 -0.00254214 0)
(1.08188 -0.00239326 0)
(1.07726 -0.00223057 0)
(1.07297 -0.00205683 0)
(1.06904 -0.00187454 0)
(1.06548 -0.00168591 0)
(1.0623 -0.00149288 0)
(1.05951 -0.00129697 0)
(1.05711 -0.00109923 0)
(1.05512 -0.000900273 0)
(1.05352 -0.000700507 0)
(1.05232 -0.000500291 0)
(1.05152 -0.00029999 0)
(1.05112 -9.98896e-005 0)
(1.31278 -0.0162705 0)
(1.30683 -0.0526466 0)
(1.2951 -0.0878125 0)
(1.2778 -0.121053 -1.51007e-025)
(1.25522 -0.151716 4.58062e-025)
(1.22769 -0.179201 -3.56665e-025)
(1.1956 -0.202858 -4.96407e-025)
(1.15952 -0.22153 -5.57489e-025)
(1.12062 -0.231298 6.43314e-025)
(1.07957 -0.235206 6.39664e-025)
(1.29134 -0.0136249 0)
(1.28648 -0.0448736 -3.07892e-026)
(1.27696 -0.0752345 0)
(1.26309 -0.10424 -1.40141e-025)
(1.24531 -0.131529 2.52343e-025)
(1.22401 -0.156796 -8.10548e-025)
(1.19943 -0.17952 3.88923e-026)
(1.17116 -0.198027 3.74914e-026)
(1.13884 -0.208173 -5.99344e-025)
(1.10297 -0.213961 7.34209e-025)
(1.27283 -0.0114519 0)
(1.26889 -0.0384789 -6.22855e-026)
(1.26115 -0.0649063 3.94617e-026)
(1.24983 -0.0904149 2.92388e-026)
(1.23518 -0.114696 1.12729e-025)
(1.21729 -0.137279 -5.21629e-025)
(1.19594 -0.157137 1.01524e-024)
(1.17088 -0.172263 2.92803e-026)
(1.14354 -0.181424 -6.31074e-025)
(1.1153 -0.19034 2.84864e-026)
(1.25673 -0.00967323 2.53618e-027)
(1.25349 -0.0331962 -3.12366e-026)
(1.24706 -0.0562992 -3.88718e-026)
(1.23751 -0.078698 1.7969e-025)
(1.22487 -0.0999844 7.48174e-026)
(1.209 -0.119437 0)
(1.1898 -0.13589 4.48779e-025)
(1.16781 -0.14828 -9.62821e-026)
(1.14501 -0.158188 6.29068e-025)
(1.12208 -0.169075 -6.94083e-025)
(1.2426 -0.00820312 2.62042e-027)
(1.23986 -0.0287578 -2.77467e-026)
(1.23433 -0.0489522 0)
(1.22596 -0.0684716 -7.47135e-026)
(1.21468 -0.0868035 -7.39971e-026)
(1.20042 -0.103181 0)
(1.18342 -0.116823 -5.39782e-025)
(1.16468 -0.12786 9.99715e-025)
(1.1456 -0.138673 5.9023e-025)
(1.12608 -0.149967 -7.18457e-025)
(1.23014 -0.00696295 0)
(1.22774 -0.0249428 -2.8644e-026)
(1.22283 -0.0425419 0)
(1.21532 -0.0594067 7.38609e-026)
(1.20516 -0.0750138 1.59757e-027)
(1.19246 -0.0887703 -1.39849e-025)
(1.17771 -0.100435 -3.96237e-025)
(1.16184 -0.110807 5.01481e-025)
(1.14559 -0.121816 0)
(1.12854 -0.132586 0)
(1.21913 -0.00589446 0)
(1.21698 -0.0215979 1.24536e-026)
(1.21253 -0.0368708 0)
(1.20573 -0.05135 -1.88641e-025)
(1.19661 -0.0645927 7.69172e-026)
(1.18542 -0.0762711 1.84165e-025)
(1.17272 -0.0865512 2.36828e-025)
(1.15918 -0.0963719 -6.32252e-026)
(1.14508 -0.106922 -9.26196e-026)
(1.12999 -0.116762 -2.97748e-026)
(1.20941 -0.00496234 0)
(1.20746 -0.0186316 1.28195e-026)
(1.2034 -0.0318289 0)
(1.19724 -0.044217 -6.4819e-026)
(1.1891 -0.0554838 1.54222e-025)
(1.17929 -0.0655383 1.56078e-026)
(1.16832 -0.0747512 2.08569e-025)
(1.15661 -0.0839148 0)
(1.14418 -0.093621 0)
(1.13074 -0.102415 6.26687e-025)
(1.20086 -0.00414696 0)
(1.19908 -0.0159902 -2.61644e-026)
(1.19537 -0.0273484 -7.34506e-026)
(1.18981 -0.0379342 1.42212e-025)
(1.18256 -0.0475692 -1.30774e-025)
(1.17397 -0.0563229 -2.49033e-025)
(1.1644 -0.0646101 3.44517e-025)
(1.15411 -0.0729953 -6.52705e-026)
(1.14303 -0.081693 0)
(1.13101 -0.0894515 3.46502e-025)
(1.19337 -0.00343549 -8.79523e-028)
(1.19175 -0.0136385 2.11947e-026)
(1.18838 -0.0233754 3.61809e-026)
(1.18336 -0.0324197 8.83215e-026)
(1.17691 -0.040696 -1.35858e-025)
(1.16932 -0.0483606 0)
(1.16088 -0.0557816 3.17296e-025)
(1.1517 -0.0633169 -2.78433e-025)
(1.14174 -0.0709732 0)
(1.13092 -0.0777542 -3.05571e-025)
(1.18685 -0.00281672 -8.99585e-028)
(1.18539 -0.0115482 1.16098e-027)
(1.18233 -0.0198573 -3.04001e-026)
(1.1778 -0.0275776 7.0573e-026)
(1.17203 -0.0347016 1.43159e-026)
(1.16526 -0.0414131 1.388e-025)
(1.15771 -0.0480014 1.867e-025)
(1.14942 -0.0546682 -2.82569e-025)
(1.14038 -0.0613182 -3.24427e-026)
(1.1306 -0.0671934 3.06981e-026)
(1.18123 -0.0022829 0)
(1.17991 -0.00969577 -9.39798e-027)
(1.17713 -0.0167443 -3.12777e-026)
(1.17304 -0.0233144 -1.08744e-025)
(1.16783 -0.0294374 -1.96043e-025)
(1.16173 -0.0352851 7.40544e-026)
(1.15487 -0.041069 -6.58041e-026)
(1.14731 -0.0468838 -3.06553e-025)
(1.13904 -0.052593 -6.36357e-026)
(1.13012 -0.0576375 0)
(1.17643 -0.00182681 0)
(1.17524 -0.0080553 0)
(1.17271 -0.0139851 0)
(1.16898 -0.019542 2.98631e-026)
(1.16425 -0.0247723 6.93479e-026)
(1.15867 -0.0298195 0)
(1.15237 -0.0348284 9.50022e-028)
(1.14539 -0.0398265 -2.4724e-025)
(1.13775 -0.0446698 1.82087e-025)
(1.12957 -0.0489545 0)
(1.17237 -0.00144113 0)
(1.1713 -0.00660144 0)
(1.16899 -0.0115284 0)
(1.16557 -0.0161752 -6.9231e-026)
(1.16121 -0.0205907 -9.85623e-026)
(1.15605 -0.024887 -1.99007e-026)
(1.15019 -0.0291539 6.86511e-026)
(1.14368 -0.0333798 -6.45045e-026)
(1.13656 -0.0374301 2.81189e-025)
(1.12898 -0.0410177 1.81181e-025)
(1.16901 -0.00111484 0)
(1.16803 -0.00530585 -2.65354e-027)
(1.1659 -0.0093227 0)
(1.16274 -0.0131377 6.88593e-026)
(1.15868 -0.016797 1.08471e-025)
(1.15385 -0.020382 9.17389e-027)
(1.14834 -0.0239409 -6.58993e-026)
(1.1422 -0.0274413 -1.22758e-025)
(1.1355 -0.0307642 9.65515e-026)
(1.12841 -0.0337089 1.8685e-025)
(1.16628 -0.000835487 -1.88934e-028)
(1.16539 -0.00413962 -4.88304e-027)
(1.16341 -0.00732097 3.5541e-027)
(1.16045 -0.0103661 0)
(1.15662 -0.0133144 -8.08306e-026)
(1.15205 -0.0162187 -1.09243e-025)
(1.1468 -0.0191009 -6.59661e-026)
(1.14096 -0.0219195 -1.89796e-025)
(1.1346 -0.0245713 -1.65225e-025)
(1.12789 -0.0269183 -3.17507e-026)
(1.16415 -0.000595557 -1.9353e-028)
(1.16333 -0.00307853 -3.67845e-026)
(1.16146 -0.00548328 3.56427e-027)
(1.15865 -0.00780626 3.42826e-026)
(1.15501 -0.0100762 -1.3604e-026)
(1.15063 -0.0123249 0)
(1.14559 -0.0145579 0)
(1.13998 -0.0167313 0)
(1.13387 -0.0187579 -3.98493e-026)
(1.12745 -0.0205438 -4.5609e-026)
(1.16259 -0.000388704 0)
(1.16181 -0.00210157 0)
(1.16003 -0.0037732 0)
(1.15734 -0.00540685 6.79298e-026)
(1.15383 -0.0070219 6.77213e-026)
(1.14959 -0.00863592 0)
(1.1447 -0.0102431 -5.6481e-026)
(1.13925 -0.011801 -1.31287e-025)
(1.13332 -0.0132385 -7.47699e-026)
(1.12713 -0.0144911 -1.59116e-026)
(1.16157 -0.000205499 -1.19849e-029)
(1.16082 -0.00118501 -1.32455e-028)
(1.1591 -0.00215382 3.40126e-026)
(1.15649 -0.0031201 -3.31289e-026)
(1.15306 -0.00409771 -1.34733e-025)
(1.14891 -0.00509286 -1.33803e-025)
(1.14413 -0.00609226 -5.60702e-026)
(1.13878 -0.0070576 -6.57232e-026)
(1.13297 -0.00793437 -6.53871e-026)
(1.12692 -0.00867852 -3.56995e-027)
(1.1611 -5.9491e-005 -1.27364e-029)
(1.1605 -0.000370906 -1.4939e-028)
(1.15904 -0.00068493 3.38683e-026)
(1.15672 -0.00100644 1.01989e-025)
(1.15356 -0.0013405 6.7301e-026)
(1.14958 -0.00168648 0)
(1.14482 -0.00203489 0)
(1.13937 -0.00236746 0)
(1.13337 -0.00266118 0)
(1.1271 -0.00290035 -4.174e-027)
(1.07921 0.274433 0)
(1.08152 0.305303 9.8061e-025)
(1.08419 0.341436 0)
(1.08737 0.38437 1.53142e-024)
(1.09123 0.435949 5.61848e-025)
(1.09594 0.498598 0)
(1.10176 0.575675 0)
(1.10905 0.671939 0)
(1.1183 0.794322 7.57293e-025)
(1.13026 0.953227 -2.2555e-026)
(1.12205 0.268244 6.346e-025)
(1.12918 0.297992 1.01087e-024)
(1.13759 0.333189 0)
(1.14756 0.375075 1.2343e-024)
(1.15949 0.425391 2.56325e-025)
(1.17397 0.4865 0)
(1.19176 0.561682 0)
(1.21398 0.655587 0)
(1.24223 0.774985 1.73765e-024)
(1.27886 0.930029 8.62698e-025)
(1.16266 0.254909 0)
(1.17496 0.283047 -1.10459e-024)
(1.18905 0.316512 1.60231e-024)
(1.20557 0.356373 1.78847e-024)
(1.22527 0.404238 2.30173e-025)
(1.24913 0.462343 1.19111e-024)
(1.27844 0.533806 -6.03436e-025)
(1.31505 0.623054 1.08176e-024)
(1.36159 0.736527 -6.75815e-027)