/*--------------------------------*- C++ -*----------------------------------*\
| =========                 |                                                 |
| \\      /  F ield         | OpenFOAM: The Open Source CFD Toolbox           |
|  \\    /   O peration     | Version:  2.1                                   |
|   \\  /    A nd           | Web:      www.OpenFOAM.org                      |
|    \\/     M anipulation  |                                                 |
\*---------------------------------------------------------------------------*/
/*   Windows 32 and 64 bit porting by blueCAPE: http://www.bluecape.com.pt   *\
|  Based on Windows porting (2.0.x v4) by Symscape: http://www.symscape.com   |
\*---------------------------------------------------------------------------*/
FoamFile
{
    version     2.0;
    format      ascii;
    class       surfaceScalarField;
    location    "0";
    object      phi;
}
// * * * * * * * * * * * * * * * * * * * * * * * * * * * * * * * * * * * * * //

dimensions      [0 3 -1 0 0 0 0];

internalField   nonuniform List<scalar> 
24170
(
3.15873e-006
-2.4834e-008
3.18381e-006
-2.50875e-008
3.21026e-006
-2.64413e-008
3.23908e-006
-2.88195e-008
3.27131e-006
-3.22344e-008
3.30809e-006
-3.67822e-008
3.35074e-006
-4.26527e-008
3.4009e-006
-5.01582e-008
3.46069e-006
-5.97906e-008
3.53302e-006
-7.23247e-008
3.62203e-006
-8.90157e-008
3.73403e-006
-1.11997e-007
3.87918e-006
-1.45145e-007
4.07536e-006
-1.96185e-007
4.35801e-006
-2.82654e-007
4.81083e-006
-4.52816e-007
5.69465e-006
-8.83819e-007
-2.53106e-006
8.22571e-006
3.48377e-006
-5.2164e-008
3.51138e-006
-5.26939e-008
3.54047e-006
-5.55321e-008
3.57217e-006
-6.05189e-008
3.60761e-006
-6.7678e-008
3.64804e-006
-7.72078e-008
3.69489e-006
-8.95024e-008
3.74994e-006
-1.0521e-007
3.8155e-006
-1.25346e-007
3.89468e-006
-1.51507e-007
3.99193e-006
-1.86266e-007
4.11389e-006
-2.33961e-007
4.27113e-006
-3.0238e-007
4.48166e-006
-4.06715e-007
4.7791e-006
-5.80094e-007
5.23224e-006
-9.05962e-007
5.98104e-006
-1.63262e-006
-3.58985e-006
7.03983e-006
3.84218e-006
-8.21531e-008
3.87247e-006
-8.29799e-008
3.90437e-006
-8.7434e-008
3.93911e-006
-9.52603e-008
3.97793e-006
-1.06492e-007
4.02215e-006
-1.21431e-007
4.07333e-006
-1.40684e-007
4.13337e-006
-1.65244e-007
4.20468e-006
-1.96662e-007
4.29054e-006
-2.37359e-007
4.39547e-006
-2.91198e-007
4.5261e-006
-3.64595e-007
4.69252e-006
-4.68801e-007
4.91075e-006
-6.24945e-007
5.20673e-006
-8.76068e-007
5.61841e-006
-1.31764e-006
6.15838e-006
-2.17259e-006
-3.90772e-006
6.47626e-006
4.23734e-006
-1.14935e-007
4.27043e-006
-1.16074e-007
4.30527e-006
-1.22269e-007
4.34317e-006
-1.33157e-007
4.38545e-006
-1.48772e-007
4.43353e-006
-1.69518e-007
4.48905e-006
-1.96206e-007
4.55398e-006
-2.30166e-007
4.63078e-006
-2.73464e-007
4.7227e-006
-3.29282e-007
4.83412e-006
-4.0262e-007
4.97112e-006
-5.0159e-007
5.14223e-006
-6.3991e-007
5.3592e-006
-8.41919e-007
5.6359e-006
-1.15277e-006
5.97617e-006
-1.65791e-006
6.31198e-006
-2.5084e-006
-3.87912e-006
6.28337e-006
4.67296e-006
-1.50593e-007
4.70894e-006
-1.52051e-007
4.74677e-006
-1.60097e-007
4.78786e-006
-1.74244e-007
4.8336e-006
-1.94513e-007
4.88547e-006
-2.21394e-007
4.94515e-006
-2.55887e-007
5.01461e-006
-2.99621e-007
5.09625e-006
-3.55104e-007
5.19311e-006
-4.2614e-007
5.30905e-006
-5.18565e-007
5.44899e-006
-6.41528e-007
5.61882e-006
-8.09745e-007
5.8243e-006
-1.0474e-006
6.06583e-006
-1.3943e-006
6.32034e-006
-1.91242e-006
6.48998e-006
-2.67804e-006
-3.70305e-006
6.31391e-006
5.15313e-006
-1.89129e-007
5.19198e-006
-1.909e-007
5.23277e-006
-2.00881e-007
5.27696e-006
-2.18438e-007
5.32601e-006
-2.4356e-007
5.38141e-006
-2.76797e-007
5.44482e-006
-3.19292e-007
5.5181e-006
-3.72907e-007
5.60346e-006
-4.40464e-007
5.70348e-006
-5.26156e-007
5.82112e-006
-6.36207e-007
5.95953e-006
-7.79934e-007
6.12113e-006
-9.71349e-007
6.30504e-006
-1.23131e-006
6.50001e-006
-1.58927e-006
6.66814e-006
-2.08054e-006
6.71642e-006
-2.72633e-006
-3.47348e-006
6.48686e-006
5.68231e-006
-2.30432e-007
5.7239e-006
-2.3249e-007
5.76746e-006
-2.44445e-007
5.81452e-006
-2.65493e-007
5.86652e-006
-2.95557e-007
5.92492e-006
-3.35203e-007
5.99128e-006
-3.85652e-007
6.06726e-006
-4.48888e-007
6.15467e-006
-5.27866e-007
6.25536e-006
-6.26849e-007
6.37105e-006
-7.51898e-007
6.50266e-006
-9.11544e-007
6.64884e-006
-1.11753e-006
6.80271e-006
-1.38518e-006
6.94541e-006
-1.73197e-006
7.03568e-006
-2.17082e-006
7.00152e-006
-2.69217e-006
-3.23218e-006
6.76023e-006
4.43731e-006
-2.61635e-007
4.46869e-006
-2.63869e-007
4.50148e-006
-2.77231e-007
4.53676e-006
-3.00776e-007
4.57556e-006
-3.34354e-007
4.61886e-006
-3.78506e-007
4.66766e-006
-4.34451e-007
4.72295e-006
-5.04176e-007
4.78567e-006
-5.90591e-007
4.85661e-006
-6.97787e-007
4.93608e-006
-8.31365e-007
5.02332e-006
-9.98782e-007
5.11529e-006
-1.2095e-006
5.2045e-006
-1.47439e-006
5.27555e-006
-1.80301e-006
5.30145e-006
-2.19671e-006
5.24461e-006
-2.63534e-006
-3.0617e-006
5.07414e-006
5.17494e-006
-2.96714e-007
5.21016e-006
-2.99095e-007
5.24686e-006
-3.13935e-007
5.2862e-006
-3.40115e-007
5.32923e-006
-3.77379e-007
5.37692e-006
-4.26193e-007
5.43018e-006
-4.87714e-007
5.48983e-006
-5.63828e-007
5.55649e-006
-6.57251e-007
5.63037e-006
-7.71669e-007
5.71088e-006
-9.11876e-007
5.79588e-006
-1.08378e-006
5.88041e-006
-1.29403e-006
5.95478e-006
-1.54876e-006
6.00227e-006
-1.85051e-006
5.99813e-006
-2.19257e-006
5.914e-006
-2.5512e-006
-2.88101e-006
5.73331e-006
6.0347e-006
-3.35618e-007
6.07369e-006
-3.38086e-007
6.11416e-006
-3.54411e-007
6.15731e-006
-3.83263e-007
6.20416e-006
-4.24228e-007
6.2556e-006
-4.77636e-007
6.31238e-006
-5.44488e-007
6.37499e-006
-6.26438e-007
6.44355e-006
-7.25818e-007
6.51753e-006
-8.45648e-007
6.59522e-006
-9.89567e-007
6.67301e-006
-1.16156e-006
6.74421e-006
-1.36523e-006
6.79777e-006
-1.60232e-006
6.81731e-006
-1.87006e-006
6.78225e-006
-2.15751e-006
6.67343e-006
-2.44238e-006
-2.69186e-006
6.48429e-006
7.03659e-006
-3.77941e-007
7.0789e-006
-3.80393e-007
7.12259e-006
-3.98108e-007
7.16883e-006
-4.29502e-007
7.21855e-006
-4.73941e-007
7.27245e-006
-5.31537e-007
7.33097e-006
-6.03014e-007
7.39418e-006
-6.89642e-007
7.46152e-006
-7.93162e-007
7.53155e-006
-9.15674e-007
7.60138e-006
-1.0594e-006
7.66607e-006
-1.22624e-006
7.71778e-006
-1.41694e-006
7.74523e-006
-1.62978e-006
7.73399e-006
-1.85881e-006
7.6687e-006
-2.09222e-006
7.53816e-006
-2.31185e-006
-2.49587e-006
7.34217e-006
8.20378e-006
-4.2271e-007
8.24837e-006
-4.24982e-007
8.29411e-006
-4.43845e-007
8.34202e-006
-4.7741e-007
8.39283e-006
-5.24755e-007
8.44697e-006
-5.85669e-007
8.50443e-006
-6.60478e-007
8.56469e-006
-7.49902e-007
8.62643e-006
-8.54907e-007
8.68726e-006
-9.76498e-007
8.74325e-006
-1.11539e-006
8.78854e-006
-1.27154e-006
8.81501e-006
-1.44341e-006
8.81236e-006
-1.62713e-006
8.76922e-006
-1.81568e-006
8.67555e-006
-1.99855e-006
8.52627e-006
-2.16257e-006
-2.29428e-006
8.32467e-006
9.56311e-006
-4.68096e-007
9.60809e-006
-4.69957e-007
9.65377e-006
-4.89528e-007
9.70094e-006
-5.24574e-007
9.74999e-006
-5.73814e-007
9.80094e-006
-6.36617e-007
9.85325e-006
-7.12787e-007
9.90572e-006
-8.02371e-007
9.95627e-006
-9.05453e-007
1.00017e-005
-1.02191e-006
1.00374e-005
-1.15108e-006
1.00572e-005
-1.2914e-006
1.00538e-005
-1.43994e-006
1.00187e-005
-1.59202e-006
9.94408e-006
-1.74109e-006
9.82455e-006
-1.87903e-006
9.65917e-006
-1.99718e-006
-2.08791e-006
9.4528e-006
1.11457e-005
-5.11055e-007
1.11879e-005
-5.12203e-007
1.12302e-005
-5.31808e-007
1.12729e-005
-5.6727e-007
1.1316e-005
-6.16892e-007
1.13589e-005
-6.79555e-007
1.14006e-005
-7.54469e-007
1.14392e-005
-8.40957e-007
1.1472e-005
-9.38239e-007
1.14953e-005
-1.04521e-006
1.15044e-005
-1.1602e-006
1.14937e-005
-1.28074e-006
1.14572e-005
-1.40341e-006
1.13889e-005
-1.52378e-006
1.12845e-005
-1.63661e-006
1.11418e-005
-1.73635e-006
1.09624e-005
-1.81782e-006
-1.87711e-006
1.07516e-005
1.29875e-005
-5.46916e-007
1.30223e-005
-5.47008e-007
1.30562e-005
-5.65742e-007
1.30891e-005
-6.0018e-007
1.31205e-005
-6.48204e-007
1.31491e-005
-7.08193e-007
1.31734e-005
-7.78776e-007
1.31911e-005
-8.58622e-007
1.31991e-005
-9.46256e-007
1.31938e-005
-1.0399e-006
1.31709e-005
-1.13734e-006
1.3126e-005
-1.23587e-006
1.30549e-005
-1.33228e-006
1.29541e-005
-1.42301e-006
1.28219e-005
-1.50436e-006
1.26585e-005
-1.57292e-006
1.24666e-005
-1.62594e-006
-1.66168e-006
1.22512e-005
1.51306e-005
-5.69017e-007
1.51513e-005
-5.67738e-007
1.51701e-005
-5.84549e-007
1.51862e-005
-6.16259e-007
1.51984e-005
-6.60403e-007
1.52051e-005
-7.14943e-007
1.52044e-005
-7.7805e-007
1.51937e-005
-8.47931e-007
1.51701e-005
-9.22699e-007
1.51305e-005
-1.00029e-006
1.50716e-005
-1.07844e-006
1.49904e-005
-1.15466e-006
1.48845e-005
-1.2264e-006
1.47526e-005
-1.2911e-006
1.45947e-005
-1.34647e-006
1.44124e-005
-1.39062e-006
1.42088e-005
-1.42228e-006
-1.44091e-006
1.3988e-005
1.7624e-005
-5.68545e-007
1.7622e-005
-5.65742e-007
1.7617e-005
-5.79602e-007
1.76076e-005
-6.06864e-007
1.75921e-005
-6.44882e-007
1.75686e-005
-6.9139e-007
1.75348e-005
-7.44323e-007
1.74886e-005
-8.01705e-007
1.74275e-005
-8.6157e-007
1.73491e-005
-9.21934e-007
1.72515e-005
-9.80805e-007
1.71331e-005
-1.03623e-006
1.6993e-005
-1.08638e-006
1.68316e-005
-1.12964e-006
1.66498e-005
-1.1647e-006
1.64498e-005
-1.19064e-006
1.62345e-005
-1.20698e-006
-1.21365e-006
1.60073e-005
1.7799e-005
-5.41374e-007
1.77707e-005
-5.37386e-007
1.77391e-005
-5.48073e-007
1.77026e-005
-5.70323e-007
1.76593e-005
-6.01539e-007
1.76073e-005
-6.39466e-007
1.75451e-005
-6.82066e-007
1.74708e-005
-7.27438e-007
1.7383e-005
-7.7378e-007
1.72805e-005
-8.19385e-007
1.71623e-005
-8.62657e-007
1.70282e-005
-9.02153e-007
1.68785e-005
-9.36633e-007
1.6714e-005
-9.65106e-007
1.65361e-005
-9.86873e-007
1.6347e-005
-1.00154e-006
1.61491e-005
-1.00903e-006
-1.00955e-006
1.5945e-005
1.58371e-005
-4.97135e-007
1.57923e-005
-4.92539e-007
1.57448e-005
-5.00593e-007
1.56929e-005
-5.18462e-007
1.56351e-005
-5.43748e-007
1.557e-005
-5.74361e-007
1.54964e-005
-6.0843e-007
1.54132e-005
-6.44251e-007
1.53197e-005
-6.80265e-007
1.52153e-005
-7.15058e-007
1.51001e-005
-7.47375e-007
1.49741e-005
-7.76149e-007
1.4838e-005
-8.00521e-007
1.46927e-005
-8.19866e-007
1.45396e-005
-8.33797e-007
1.43803e-005
-8.42166e-007
1.42163e-005
-8.45043e-007
-8.4269e-007
1.40494e-005
1.40955e-005
-4.43965e-007
1.40422e-005
-4.39227e-007
1.39868e-005
-4.45234e-007
1.39278e-005
-4.59486e-007
1.38639e-005
-4.7985e-007
1.37941e-005
-5.04467e-007
1.37173e-005
-5.31688e-007
1.36331e-005
-5.60039e-007
1.3541e-005
-5.88208e-007
1.3441e-005
-6.15039e-007
1.33332e-005
-6.39547e-007
1.3218e-005
-6.60931e-007
1.3096e-005
-6.78582e-007
1.29683e-005
-6.92087e-007
1.28357e-005
-7.0123e-007
1.26995e-005
-7.05975e-007
1.25609e-005
-7.06442e-007
-7.02885e-007
1.24211e-005
1.25484e-005
-3.87296e-007
1.24919e-005
-3.82748e-007
1.24339e-005
-3.87217e-007
1.23729e-005
-3.98549e-007
1.2308e-005
-4.14896e-007
1.22382e-005
-4.34651e-007
1.21629e-005
-4.56401e-007
1.20817e-005
-4.78897e-007
1.19946e-005
-5.01049e-007
1.19014e-005
-5.21922e-007
1.18026e-005
-5.40738e-007
1.16986e-005
-5.56887e-007
1.15899e-005
-5.69926e-007
1.14774e-005
-5.79575e-007
1.13619e-005
-5.85708e-007
1.12443e-005
-5.88341e-007
1.11254e-005
-5.87605e-007
-5.83724e-007
1.10063e-005
1.11731e-005
-3.30607e-007
1.11168e-005
-3.26462e-007
1.10594e-005
-3.29791e-007
1.09996e-005
-3.38773e-007
1.09366e-005
-3.51845e-007
1.08696e-005
-3.67649e-007
1.07982e-005
-3.84994e-007
1.07221e-005
-4.02845e-007
1.06414e-005
-4.20306e-007
1.05561e-005
-4.36622e-007
1.04665e-005
-4.5118e-007
1.03731e-005
-4.63511e-007
1.02765e-005
-4.73284e-007
1.01772e-005
-4.80305e-007
1.0076e-005
-4.84501e-007
9.97358e-006
-4.85906e-007
9.87062e-006
-4.84644e-007
-4.80906e-007
9.7678e-006
9.95003e-006
-2.76018e-007
9.89596e-006
-2.72397e-007
9.84105e-006
-2.74879e-007
9.78424e-006
-2.8196e-007
9.72473e-006
-2.92341e-007
9.66198e-006
-3.04899e-007
9.59564e-006
-3.18654e-007
9.52556e-006
-3.32758e-007
9.45173e-006
-3.46485e-007
9.37434e-006
-3.59232e-007
9.29368e-006
-3.70517e-007
9.21015e-006
-3.79976e-007
9.12422e-006
-3.87362e-007
9.03646e-006
-3.92536e-007
8.94741e-006
-3.95453e-007
8.85766e-006
-3.96155e-007
8.76776e-006
-3.94749e-007
-3.91397e-007
8.67825e-006
8.86182e-006
-2.24736e-007
8.81111e-006
-2.21693e-007
8.75977e-006
-2.23541e-007
8.70688e-006
-2.29061e-007
8.65174e-006
-2.37205e-007
8.5939e-006
-2.47062e-007
8.53309e-006
-2.57843e-007
8.4692e-006
-2.68868e-007
8.40228e-006
-2.79561e-007
8.33249e-006
-2.89444e-007
8.26012e-006
-2.98142e-007
8.18551e-006
-3.05376e-007
8.10911e-006
-3.10958e-007
8.03136e-006
-3.14788e-007
7.95275e-006
-3.16839e-007
7.87375e-006
-3.17152e-007
7.79481e-006
-3.15815e-007
-3.1296e-007
7.71637e-006
7.8933e-006
-1.77363e-007
7.84651e-006
-1.7491e-007
7.79924e-006
-1.76272e-007
7.75067e-006
-1.80493e-007
7.70022e-006
-1.86749e-007
7.64748e-006
-1.94326e-007
7.59224e-006
-2.02606e-007
7.53443e-006
-2.11056e-007
7.4741e-006
-2.19231e-007
7.41142e-006
-2.26762e-007
7.34664e-006
-2.33362e-007
7.28009e-006
-2.38819e-007
7.21212e-006
-2.42993e-007
7.14314e-006
-2.45811e-007
7.07356e-006
-2.47258e-007
7.00378e-006
-2.47366e-007
6.93417e-006
-2.4621e-007
-2.4389e-007
6.8651e-006
7.03108e-006
-1.34115e-007
6.98841e-006
-1.32233e-007
6.94535e-006
-1.33213e-007
6.90119e-006
-1.36336e-007
6.85542e-006
-1.40979e-007
6.8077e-006
-1.46605e-007
6.75784e-006
-1.52748e-007
6.70579e-006
-1.59011e-007
6.65162e-006
-1.65058e-007
6.59548e-006
-1.70617e-007
6.53759e-006
-1.75474e-007
6.47824e-006
-1.79473e-007
6.41776e-006
-1.82512e-007
6.35649e-006
-1.8454e-007
6.29478e-006
-1.85548e-007
6.23297e-006
-1.85561e-007
6.1714e-006
-1.84636e-007
-1.82849e-007
6.11036e-006
6.26336e-006
-9.49635e-008
6.22475e-006
-9.36186e-008
6.18582e-006
-9.42899e-008
6.14596e-006
-9.6469e-008
6.10469e-006
-9.97166e-008
6.06174e-006
-1.03653e-007
6.01694e-006
-1.07949e-007
5.97026e-006
-1.12326e-007
5.92175e-006
-1.16547e-007
5.87155e-006
-1.20421e-007
5.81988e-006
-1.23799e-007
5.76698e-006
-1.26573e-007
5.71314e-006
-1.28673e-007
5.65866e-006
-1.30063e-007
5.60385e-006
-1.30737e-007
5.54901e-006
-1.30716e-007
5.49441e-006
-1.30038e-007
-1.28758e-007
5.44032e-006
5.57967e-006
-5.97361e-008
5.54494e-006
-5.88854e-008
5.50995e-006
-5.92992e-008
5.47414e-006
-6.06581e-008
5.43711e-006
-6.26859e-008
5.3986e-006
-6.51442e-008
5.35848e-006
-6.78269e-008
5.31671e-006
-7.05583e-008
5.27335e-006
-7.31909e-008
5.22854e-006
-7.56049e-008
5.18245e-006
-7.77074e-008
5.1353e-006
-7.9431e-008
5.08736e-006
-8.07323e-008
5.03889e-006
-8.15893e-008
4.99015e-006
-8.19991e-008
4.94141e-006
-8.19743e-008
4.89291e-006
-8.15396e-008
-8.0729e-008
4.84488e-006
4.97075e-006
-2.81789e-008
4.93964e-006
-2.77765e-008
4.90831e-006
-2.79698e-008
4.87626e-006
-2.8608e-008
4.84314e-006
-2.9561e-008
4.80871e-006
-3.07165e-008
4.77286e-006
-3.19774e-008
4.73556e-006
-3.32608e-008
4.69687e-006
-3.44973e-008
4.65689e-006
-3.56307e-008
4.6158e-006
-3.66172e-008
4.5738e-006
-3.74253e-008
4.5311e-006
-3.80346e-008
4.48795e-006
-3.84349e-008
4.44457e-006
-3.86248e-008
4.40121e-006
-3.86105e-008
4.35807e-006
-3.84035e-008
-3.80198e-008
4.31536e-006
4.42837e-006
4.40059e-006
4.37262e-006
4.34402e-006
4.31446e-006
4.28374e-006
4.25176e-006
4.2185e-006
4.184e-006
4.14837e-006
4.11176e-006
4.07433e-006
4.0363e-006
3.99786e-006
3.95924e-006
3.92063e-006
3.88222e-006
3.8442e-006
1.2111e-007
-1.2111e-007
2.43065e-007
-1.21955e-007
3.65718e-007
-1.22653e-007
4.88914e-007
-1.23196e-007
6.12495e-007
-1.23581e-007
7.36299e-007
-1.23804e-007
8.6016e-007
-1.23861e-007
9.83911e-007
-1.23751e-007
1.10738e-006
-1.23473e-007
1.23041e-006
-1.23027e-007
1.35283e-006
-1.22415e-007
1.47447e-006
-1.2164e-007
1.59517e-006
-1.20703e-007
1.71478e-006
-1.19611e-007
1.83315e-006
-1.18369e-007
1.95013e-006
-1.16982e-007
2.06559e-006
-1.15458e-007
2.17939e-006
-1.13804e-007
2.29142e-006
-1.12029e-007
2.40156e-006
-1.10142e-007
2.50972e-006
-1.08151e-007
2.61578e-006
-1.06066e-007
2.71968e-006
-1.03896e-007
2.82133e-006
-1.01651e-007
2.92067e-006
-9.93405e-008
3.01764e-006
-9.69737e-008
3.1122e-006
-9.45598e-008
3.20431e-006
-9.21076e-008
3.29394e-006
-8.9626e-008
3.38106e-006
-8.71229e-008
3.46566e-006
-8.46064e-008
3.54775e-006
-8.20838e-008
3.62731e-006
-7.9562e-008
3.70436e-006
-7.70474e-008
3.7789e-006
-7.45461e-008
3.85097e-006
-7.20635e-008
3.92057e-006
-6.96045e-008
3.98775e-006
-6.71739e-008
4.05252e-006
-6.47755e-008
4.11493e-006
-6.2413e-008
4.17502e-006
-6.00897e-008
4.23283e-006
-5.78083e-008
4.2884e-006
-5.55713e-008
4.34178e-006
-5.33806e-008
4.39302e-006
-5.12379e-008
4.44217e-006
-4.91448e-008
4.48927e-006
-4.71023e-008
4.53438e-006
-4.51112e-008
4.57755e-006
-4.31721e-008
4.61884e-006
-4.12855e-008
4.65829e-006
-3.94515e-008
4.69596e-006
-3.76701e-008
4.7319e-006
-3.59411e-008
4.76617e-006
-3.42643e-008
4.7988e-006
-3.26392e-008
4.82987e-006
-3.10653e-008
4.85941e-006
-2.95418e-008
4.88748e-006
-2.80682e-008
4.91412e-006
-2.66435e-008
4.93939e-006
-2.52669e-008
4.96333e-006
-2.39375e-008
4.98598e-006
-2.26543e-008
5.0074e-006
-2.14163e-008
5.02762e-006
-2.02225e-008
5.04669e-006
-1.90718e-008
5.06466e-006
-1.79631e-008
5.08155e-006
-1.68954e-008
5.09742e-006
-1.58676e-008
5.1123e-006
-1.48784e-008
5.12622e-006
-1.3927e-008
5.13924e-006
-1.30121e-008
5.15137e-006
-1.21327e-008
5.16266e-006
-1.12877e-008
5.17313e-006
-1.0476e-008
5.18283e-006
-9.69666e-009
5.19178e-006
-8.94851e-009
5.20001e-006
-8.23058e-009
5.20755e-006
-7.54185e-009
5.21443e-006
-6.88135e-009
5.22068e-006
-6.24807e-009
5.22632e-006
-5.64107e-009
5.23138e-006
-5.05944e-009
5.23588e-006
-4.50227e-009
5.23985e-006
-3.96861e-009
5.24331e-006
-3.45765e-009
5.24628e-006
-2.96853e-009
5.24878e-006
-2.50039e-009
5.25083e-006
-2.05245e-009
5.25245e-006
-1.62385e-009
5.25367e-006
-1.21393e-009
5.25449e-006
-8.219e-010
5.25494e-006
-4.46998e-010
5.25503e-006
-8.85365e-011
5.25477e-006
2.54152e-010
5.25419e-006
5.81736e-010
5.25329e-006
8.94889e-010
5.2521e-006
1.19423e-009
5.25062e-006
1.48033e-009
5.24887e-006
1.75381e-009
5.24685e-006
2.01521e-009
5.24459e-006
2.26512e-009
5.24208e-006
2.50405e-009
5.23935e-006
2.73254e-009
5.2364e-006
2.95104e-009
5.23324e-006
3.1601e-009
5.22988e-006
3.36009e-009
5.22633e-006
3.55152e-009
5.22259e-006
3.73485e-009
5.21868e-006
3.91039e-009
5.2146e-006
4.07867e-009
5.21036e-006
4.23998e-009
5.20597e-006
4.39475e-009
5.20142e-006
4.54326e-009
5.19674e-006
4.68594e-009
5.19192e-006
4.82303e-009
5.18696e-006
4.95494e-009
5.18188e-006
5.0819e-009
5.17667e-006
5.20419e-009
5.17135e-006
5.32219e-009
5.16592e-006
5.43603e-009
5.16037e-006
5.54605e-009
5.15472e-006
5.65249e-009
5.14896e-006
5.75556e-009
5.14311e-006
5.8555e-009
5.13715e-006
5.95248e-009
5.13111e-006
6.04671e-009
5.12497e-006
6.13848e-009
5.11874e-006
6.22787e-009
5.11243e-006
6.31507e-009
5.10603e-006
6.40031e-009
5.09954e-006
6.48365e-009
5.09298e-006
6.56537e-009
5.08633e-006
6.64552e-009
5.07961e-006
6.72428e-009
5.07281e-006
6.80176e-009
5.06593e-006
6.87814e-009
5.05897e-006
6.95348e-009
5.05195e-006
7.02795e-009
5.04484e-006
7.10163e-009
5.03767e-006
7.17465e-009
5.03042e-006
7.24709e-009
5.0231e-006
7.31908e-009
5.01571e-006
7.39068e-009
5.00825e-006
7.46202e-009
5.00072e-006
7.5332e-009
4.99311e-006
7.60423e-009
4.98544e-006
7.67528e-009
4.97769e-006
7.74643e-009
4.96987e-006
7.81768e-009
4.96198e-006
7.88917e-009
4.95402e-006
7.96099e-009
4.94599e-006
8.03311e-009
4.93788e-006
8.10561e-009
4.92971e-006
8.17855e-009
4.92145e-006
8.25191e-009
4.91313e-006
8.32572e-009
4.90473e-006
8.39994e-009
4.89625e-006
8.47449e-009
4.88771e-006
8.54923e-009
4.87908e-006
8.62397e-009
4.87038e-006
8.69844e-009
4.86161e-006
8.77232e-009
4.85277e-006
8.84496e-009
4.84385e-006
8.91565e-009
4.83487e-006
8.98355e-009
4.82582e-006
9.04732e-009
4.81671e-006
9.10553e-009
4.80756e-006
9.15605e-009
4.79836e-006
9.19647e-009
4.78914e-006
9.22378e-009
4.7799e-006
9.23438e-009
4.77068e-006
9.22401e-009
4.76149e-006
9.18794e-009
4.75237e-006
9.12107e-009
4.74335e-006
9.01862e-009
4.73447e-006
8.87612e-009
4.72578e-006
8.69122e-009
4.71732e-006
8.4638e-009
4.70912e-006
8.19785e-009
7.90048e-009
4.70122e-006
1.21792e-007
-2.42902e-007
2.44431e-007
-2.44594e-007
3.67764e-007
-2.45986e-007
4.91634e-007
-2.47066e-007
6.15877e-007
-2.47825e-007
7.40328e-007
-2.48254e-007
8.64815e-007
-2.48349e-007
9.89169e-007
-2.48105e-007
1.11322e-006
-2.47521e-007
1.23679e-006
-2.46599e-007
1.35971e-006
-2.45341e-007
1.48183e-006
-2.43752e-007
1.60297e-006
-2.41841e-007
1.72297e-006
-2.39616e-007
1.84169e-006
-2.37089e-007
1.95898e-006
-2.34272e-007
2.0747e-006
-2.31181e-007
2.18873e-006
-2.2783e-007
2.30094e-006
-2.24238e-007
2.41122e-006
-2.20421e-007
2.51946e-006
-2.16399e-007
2.62559e-006
-2.1219e-007
2.72951e-006
-2.07813e-007
2.83114e-006
-2.03288e-007
2.93044e-006
-1.98635e-007
3.02733e-006
-1.93871e-007
3.12179e-006
-1.89015e-007
3.21377e-006
-1.84085e-007
3.30324e-006
-1.79099e-007
3.39019e-006
-1.74073e-007
3.47461e-006
-1.69022e-007
3.55648e-006
-1.63962e-007
3.63583e-006
-1.58905e-007
3.71264e-006
-1.53865e-007
3.78695e-006
-1.48854e-007
3.85877e-006
-1.43881e-007
3.92812e-006
-1.38959e-007
3.99504e-006
-1.34094e-007
4.05956e-006
-1.29295e-007
4.12172e-006
-1.2457e-007
4.18155e-006
-1.19924e-007
4.23911e-006
-1.15363e-007
4.29443e-006
-1.10891e-007
4.34756e-006
-1.06513e-007
4.39856e-006
-1.02232e-007
4.44746e-006
-9.80511e-008
4.49433e-006
-9.39715e-008
4.53922e-006
-8.99951e-008
4.58217e-006
-8.61232e-008
4.62324e-006
-8.23564e-008
4.66248e-006
-7.86951e-008
4.69995e-006
-7.51391e-008
4.7357e-006
-7.16881e-008
4.76977e-006
-6.83414e-008
4.80223e-006
-6.50981e-008
4.83313e-006
-6.19571e-008
4.8625e-006
-5.89171e-008
4.89041e-006
-5.59766e-008
4.9169e-006
-5.31339e-008
4.94202e-006
-5.03872e-008
4.96582e-006
-4.77348e-008
4.98834e-006
-4.51746e-008
5.00963e-006
-4.27047e-008
5.02973e-006
-4.0323e-008
5.04868e-006
-3.80272e-008
5.06653e-006
-3.58154e-008
5.08332e-006
-3.36853e-008
5.09909e-006
-3.16346e-008
5.11387e-006
-2.96614e-008
5.12771e-006
-2.77632e-008
5.14064e-006
-2.5938e-008
5.15269e-006
-2.41836e-008
5.1639e-006
-2.24978e-008
5.1743e-006
-2.08785e-008
5.18393e-006
-1.93236e-008
5.19281e-006
-1.7831e-008
5.20098e-006
-1.63986e-008
5.20846e-006
-1.50245e-008
5.21528e-006
-1.37067e-008
5.22148e-006
-1.24432e-008
5.22707e-006
-1.12322e-008
5.23208e-006
-1.00717e-008
5.23654e-006
-8.95995e-009
5.24047e-006
-7.89519e-009
5.24389e-006
-6.87567e-009
5.24682e-006
-5.89966e-009
5.24928e-006
-4.96553e-009
5.2513e-006
-4.07165e-009
5.25289e-006
-3.21651e-009
5.25408e-006
-2.39849e-009
5.25487e-006
-1.61613e-009
5.25529e-006
-8.68001e-010
5.25536e-006
-1.52635e-010
5.25508e-006
5.31226e-010
5.25448e-006
1.18502e-009
5.25356e-006
1.80997e-009
5.25235e-006
2.40734e-009
5.25085e-006
2.97837e-009
5.24908e-006
3.5242e-009
5.24705e-006
4.04594e-009
5.24477e-006
4.54477e-009
5.24225e-006
5.02171e-009
5.23951e-006
5.47778e-009
5.23654e-006
5.91397e-009
5.23337e-006
6.33121e-009
5.23e-006
6.73052e-009
5.22644e-006
7.11272e-009
5.2227e-006
7.47865e-009
5.21878e-006
7.82922e-009
5.21469e-006
8.16512e-009
5.21045e-006
8.48725e-009
5.20604e-006
8.79621e-009
5.20149e-006
9.0928e-009
5.1968e-006
9.37768e-009
5.19197e-006
9.65148e-009
5.18701e-006
9.91484e-009
5.18193e-006
1.01684e-008
5.17672e-006
1.04127e-008
5.17139e-006
1.06483e-008
5.16595e-006
1.08757e-008
5.1604e-006
1.10955e-008
5.15475e-006
1.13081e-008
5.14899e-006
1.1514e-008
5.14313e-006
1.17136e-008
5.13718e-006
1.19074e-008
5.13113e-006
1.20957e-008
5.12499e-006
1.2279e-008
5.11876e-006
1.24576e-008
5.11244e-006
1.26318e-008
5.10604e-006
1.28022e-008
5.09955e-006
1.29688e-008
5.09299e-006
1.31321e-008
5.08634e-006
1.32923e-008
5.07961e-006
1.34497e-008
5.07281e-006
1.36046e-008
5.06593e-006
1.37572e-008
5.05898e-006
1.39078e-008
5.05195e-006
1.40567e-008
5.04485e-006
1.42039e-008
5.03767e-006
1.43499e-008
5.03042e-006
1.44947e-008
5.0231e-006
1.46386e-008
5.01571e-006
1.47818e-008
5.00825e-006
1.49244e-008
5.00072e-006
1.50667e-008
4.99311e-006
1.52088e-008
4.98544e-006
1.53509e-008
4.97769e-006
1.5493e-008
4.96987e-006
1.56356e-008
4.96198e-006
1.57786e-008
4.95402e-006
1.59221e-008
4.94599e-006
1.60664e-008
4.93788e-006
1.62113e-008
4.92971e-006
1.63572e-008
4.92145e-006
1.65039e-008
4.91313e-006
1.66516e-008
4.90473e-006
1.68e-008
4.89625e-006
1.69491e-008
4.8877e-006
1.70987e-008
4.87908e-006
1.72483e-008
4.87038e-006
1.73973e-008
4.86161e-006
1.75451e-008
4.85276e-006
1.76905e-008
4.84385e-006
1.78323e-008
4.83486e-006
1.79683e-008
4.82581e-006
1.80962e-008
4.8167e-006
1.8213e-008
4.80755e-006
1.83145e-008
4.79835e-006
1.83961e-008
4.78912e-006
1.84514e-008
4.77988e-006
1.84733e-008
4.77065e-006
1.84534e-008
4.76146e-006
1.83821e-008
4.75233e-006
1.82493e-008
4.7433e-006
1.80448e-008
4.73442e-006
1.776e-008
4.72572e-006
1.73896e-008
4.71725e-006
1.69338e-008
4.70905e-006
1.64001e-008
1.58039e-008
4.70114e-006
1.23175e-007
-3.66077e-007
2.472e-007
-3.68619e-007
3.71913e-007
-3.70699e-007
4.97148e-007
-3.72301e-007
6.22732e-007
-3.73409e-007
7.48491e-007
-3.74013e-007
8.74246e-007
-3.74104e-007
9.99818e-007
-3.73677e-007
1.12503e-006
-3.72731e-007
1.2497e-006
-3.71268e-007
1.37365e-006
-3.69293e-007
1.49671e-006
-3.66817e-007
1.61872e-006
-3.6385e-007
1.73951e-006
-3.60408e-007
1.85894e-006
-3.5651e-007
1.97684e-006
-3.52176e-007
2.09309e-006
-3.4743e-007
2.20755e-006
-3.42295e-007
2.32011e-006
-3.36798e-007
2.43066e-006
-3.30968e-007
2.53909e-006
-3.24832e-007
2.64533e-006
-3.18421e-007
2.74928e-006
-3.11763e-007
2.85088e-006
-3.04888e-007
2.95007e-006
-2.97826e-007
3.0468e-006
-2.90604e-007
3.14104e-006
-2.83251e-007
3.23275e-006
-2.75794e-007
3.3219e-006
-2.68259e-007
3.4085e-006
-2.60669e-007
3.49253e-006
-2.53049e-007
3.57399e-006
-2.4542e-007
3.65288e-006
-2.37803e-007
3.72924e-006
-2.30217e-007
3.80306e-006
-2.22678e-007
3.87438e-006
-2.15204e-007
3.94323e-006
-2.07807e-007
4.00964e-006
-2.00502e-007
4.07365e-006
-1.933e-007
4.13529e-006
-1.86211e-007
4.19461e-006
-1.79244e-007
4.25165e-006
-1.72407e-007
4.30647e-006
-1.65707e-007
4.3591e-006
-1.5915e-007
4.40961e-006
-1.52739e-007
4.45804e-006
-1.4648e-007
4.50444e-006
-1.40374e-007
4.54887e-006
-1.34424e-007
4.59138e-006
-1.28632e-007
4.63202e-006
-1.22998e-007
4.67085e-006
-1.17523e-007
4.70791e-006
-1.12206e-007
4.74327e-006
-1.07047e-007
4.77698e-006
-1.02044e-007
4.80908e-006
-9.71968e-008
4.83962e-006
-9.25027e-008
4.86866e-006
-8.79599e-008
4.89625e-006
-8.3566e-008
4.92244e-006
-7.93186e-008
4.94727e-006
-7.5215e-008
4.97078e-006
-7.12523e-008
4.99304e-006
-6.74276e-008
5.01407e-006
-6.37378e-008
5.03393e-006
-6.01798e-008
5.05265e-006
-5.67504e-008
5.07028e-006
-5.34464e-008
5.08686e-006
-5.02645e-008
5.10243e-006
-4.72014e-008
5.11702e-006
-4.42538e-008
5.13067e-006
-4.14184e-008
5.14343e-006
-3.8692e-008
5.15532e-006
-3.60713e-008
5.16637e-006
-3.35531e-008
5.17663e-006
-3.11342e-008
5.18611e-006
-2.88114e-008
5.19486e-006
-2.65817e-008
5.20291e-006
-2.44419e-008
5.21027e-006
-2.23891e-008
5.21699e-006
-2.04204e-008
5.22308e-006
-1.85328e-008
5.22857e-006
-1.67235e-008
5.23349e-006
-1.49897e-008
5.23785e-006
-1.33287e-008
5.2417e-006
-1.17378e-008
5.24504e-006
-1.02145e-008
5.24789e-006
-8.75618e-009
5.25029e-006
-7.36039e-009
5.25224e-006
-6.02472e-009
5.25377e-006
-4.74682e-009
5.2549e-006
-3.5244e-009
5.25564e-006
-2.35525e-009
5.256e-006
-1.23715e-009
5.25602e-006
-1.68114e-010
5.2557e-006
8.54037e-010
5.25505e-006
1.83119e-009
5.2541e-006
2.76528e-009
5.25284e-006
3.65823e-009
5.25131e-006
4.51176e-009
5.24951e-006
5.32768e-009
5.24745e-006
6.10771e-009
5.24514e-006
6.85344e-009
5.24259e-006
7.56648e-009
5.23982e-006
8.24836e-009
5.23684e-006
8.90054e-009
5.23364e-006
9.52449e-009
5.23025e-006
1.01216e-008
5.22667e-006
1.06931e-008
5.22291e-006
1.12404e-008
5.21897e-006
1.17647e-008
5.21487e-006
1.22672e-008
5.21061e-006
1.27489e-008
5.20619e-006
1.32111e-008
5.20163e-006
1.36548e-008
5.19693e-006
1.4081e-008
5.19209e-006
1.44907e-008
5.18712e-006
1.48848e-008
5.18202e-006
1.52642e-008
5.17681e-006
1.56298e-008
5.17147e-006
1.59824e-008
5.16603e-006
1.63228e-008
5.16047e-006
1.66517e-008
5.15481e-006
1.697e-008
5.14904e-006
1.72782e-008
5.14318e-006
1.75771e-008
5.13722e-006
1.78672e-008
5.13117e-006
1.81492e-008
5.12502e-006
1.84237e-008
5.11879e-006
1.86911e-008
5.11247e-006
1.89522e-008
5.10606e-006
1.92073e-008
5.09958e-006
1.94569e-008
5.09301e-006
1.97015e-008
5.08636e-006
1.99415e-008
5.07963e-006
2.01773e-008
5.07282e-006
2.04094e-008
5.06594e-006
2.06381e-008
5.05899e-006
2.08638e-008
5.05196e-006
2.10869e-008
5.04485e-006
2.13076e-008
5.03768e-006
2.15264e-008
5.03043e-006
2.17435e-008
5.02311e-006
2.19592e-008
5.01572e-006
2.21738e-008
5.00825e-006
2.23876e-008
5.00072e-006
2.26009e-008
4.99311e-006
2.28139e-008
4.98544e-006
2.30269e-008
4.97769e-006
2.32402e-008
4.96987e-006
2.34539e-008
4.96198e-006
2.36682e-008
4.95402e-006
2.38835e-008
4.94599e-006
2.40998e-008
4.93788e-006
2.43173e-008
4.9297e-006
2.4536e-008
4.92145e-006
2.47561e-008
4.91312e-006
2.49776e-008
4.90472e-006
2.52003e-008
4.89625e-006
2.54241e-008
4.8877e-006
2.56485e-008
4.87907e-006
2.5873e-008
4.87037e-006
2.60969e-008
4.8616e-006
2.6319e-008
4.85275e-006
2.65376e-008
4.84384e-006
2.67506e-008
4.83485e-006
2.69553e-008
4.8258e-006
2.71481e-008
4.81669e-006
2.73243e-008
4.80752e-006
2.7478e-008
4.79832e-006
2.76017e-008
4.78908e-006
2.76865e-008
4.77983e-006
2.77214e-008
4.77059e-006
2.76937e-008
4.76139e-006
2.75889e-008
4.75224e-006
2.73915e-008
4.7432e-006
2.70862e-008
4.7343e-006
2.66595e-008
4.72559e-006
2.61029e-008
4.71711e-006
2.54162e-008
4.7089e-006
2.4611e-008
2.37118e-008
4.70099e-006
1.25298e-007
-4.91374e-007
2.51449e-007
-4.9477e-007
3.78279e-007
-4.97529e-007
5.05607e-007
-4.99628e-007
6.33246e-007
-5.01048e-007
7.61007e-007
-5.01774e-007
8.88699e-007
-5.01796e-007
1.01613e-006
-5.01107e-007
1.14311e-006
-4.99708e-007
1.26944e-006
-4.97604e-007
1.39495e-006
-4.94803e-007
1.51945e-006
-4.91319e-007
1.64278e-006
-4.87172e-007
1.76475e-006
-4.82384e-007
1.88522e-006
-4.76982e-007
2.00404e-006
-4.70995e-007
2.12107e-006
-4.64456e-007