/*--------------------------------*- C++ -*----------------------------------*\
| =========                 |                                                 |
| \\      /  F ield         | OpenFOAM: The Open Source CFD Toolbox           |
|  \\    /   O peration     | Version:  2.1                                   |
|   \\  /    A nd           | Web:      www.OpenFOAM.org                      |
|    \\/     M anipulation  |                                                 |
\*---------------------------------------------------------------------------*/
/*   Windows 32 and 64 bit porting by blueCAPE: http://www.bluecape.com.pt   *\
|  Based on Windows porting (2.0.x v4) by Symscape: http://www.symscape.com   |
\*---------------------------------------------------------------------------*/
FoamFile
{
    version     2.0;
    format      ascii;
    class       volVectorField;
    location    "0";
    object      U;
}
// * * * * * * * * * * * * * * * * * * * * * * * * * * * * * * * * * * * * * //

dimensions      [0 1 -1 0 0 0 0];

internalField   nonuniform List<vector> 
12225
(
(10.0396 -0.00784477 0)
(10.1185 -0.00825466 0)
(10.2006 -0.00906217 0)
(10.2887 -0.0102883 0)
(10.386 -0.0119863 0)
(10.496 -0.0142466 0)
(10.6225 -0.0172078 0)
(10.7704 -0.021078 0)
(10.9455 -0.0261715 0)
(11.1558 -0.0329753 0)
(11.4127 -0.0422744 0)
(11.7327 -0.0554018 0)
(12.1418 -0.0747872 0)
(12.6848 -0.105293 0)
(13.4459 -0.158014 0)
(14.6138 -0.263676 0)
(16.7323 -0.536068 0)
(22.1271 -1.59907 0)
(10.0395 -0.0247453 0)
(10.1182 -0.0260373 0)
(10.2002 -0.0285825 0)
(10.288 -0.0324468 0)
(10.385 -0.0377972 0)
(10.4946 -0.0449171 0)
(10.6207 -0.0542418 0)
(10.7679 -0.0664225 0)
(10.942 -0.082442 0)
(11.151 -0.103819 0)
(11.4057 -0.132994 0)
(11.7221 -0.174089 0)
(12.1249 -0.234556 0)
(12.6553 -0.329108 0)
(13.3876 -0.490446 0)
(14.4688 -0.804134 0)
(16.1988 -1.54854 0)
(18.8044 -3.89979 0)
(10.0393 -0.0428929 0)
(10.1176 -0.0451291 0)
(10.1991 -0.0495336 0)
(10.2864 -0.0562187 0)
(10.3828 -0.0654709 0)
(10.4916 -0.0777757 0)
(10.6165 -0.0938774 0)
(10.7621 -0.114888 0)
(10.9341 -0.142477 0)
(11.1399 -0.179213 0)
(11.3896 -0.229191 0)
(11.6979 -0.299252 0)
(12.0865 -0.401555 0)
(12.5896 -0.559426 0)
(13.262 -0.822147 0)
(14.187 -1.30654 0)
(15.4318 -2.32402 0)
(16.5629 -4.74662 0)
(10.039 -0.0627646 0)
(10.1165 -0.0660286 0)
(10.1973 -0.0724554 0)
(10.2837 -0.082205 0)
(10.3789 -0.0956885 0)
(10.4862 -0.113602 0)
(10.6093 -0.137012 0)
(10.7523 -0.167499 0)
(10.9205 -0.207428 0)
(11.1208 -0.260402 0)
(11.3621 -0.33209 0)
(11.6569 -0.431795 0)
(12.0225 -0.575589 0)
(12.4829 -0.792968 0)
(13.0685 -1.14177 0)
(13.8007 -1.74237 0)
(14.6047 -2.84916 0)
(14.9789 -4.91866 0)
(10.0384 -0.0844283 0)
(10.1149 -0.0888018 0)
(10.1944 -0.0974093 0)
(10.2794 -0.110457 0)
(10.373 -0.128482 0)
(10.4781 -0.152392 0)
(10.5982 -0.183571 0)
(10.7372 -0.224061 0)
(10.8999 -0.276885 0)
(11.092 -0.346584 0)
(11.321 -0.440174 0)
(11.5964 -0.568857 0)
(11.9297 -0.751231 0)
(12.3336 -1.0194 0)
(12.8148 -1.43051 0)
(13.3493 -2.08626 0)
(13.8085 -3.1508 0)
(13.8092 -4.78479 0)
(10.0377 -0.10791 0)
(10.1126 -0.113468 0)
(10.1904 -0.124401 0)
(10.2734 -0.140956 0)
(10.3644 -0.163789 0)
(10.4664 -0.194011 0)
(10.5824 -0.233302 0)
(10.7158 -0.284124 0)
(10.8707 -0.350064 0)
(11.0516 -0.436416 0)
(11.264 -0.551146 0)
(11.5139 -0.70651 0)
(11.8068 -0.9218 0)
(12.1441 -1.22782 0)
(12.5143 -1.67326 0)
(12.8698 -2.3299 0)
(13.0837 -3.27938 0)
(12.912 -4.52686 0)
(10.0366 -0.133173 0)
(10.1093 -0.13998 0)
(10.1848 -0.153356 0)
(10.265 -0.173581 0)
(10.3527 -0.201416 0)
(10.4505 -0.238148 0)
(10.5609 -0.285713 0)
(10.6869 -0.346906 0)
(10.8315 -0.425729 0)
(10.998 -0.527942 0)
(11.1895 -0.661913 0)
(11.4084 -0.839914 0)
(11.6544 -1.08 0)
(11.9202 -1.40831 0)
(12.1833 -1.8606 0)
(12.3907 -2.47815 0)
(12.4427 -3.2855 0)
(12.2023 -4.22902 0)
(10.0354 -0.154227 0)
(10.1057 -0.16205 0)
(10.1785 -0.177412 0)
(10.2557 -0.200605 0)
(10.3396 -0.232458 0)
(10.4327 -0.274374 0)
(10.5371 -0.328443 0)
(10.6551 -0.39765 0)
(10.7888 -0.486195 0)
(10.9403 -0.599972 0)
(11.1108 -0.747267 0)
(11.2998 -0.939682 0)
(11.503 -1.1932 0)
(11.7087 -1.52885 0)
(11.891 -1.9713 0)
(12.002 -2.54137 0)
(11.9688 -3.23556 0)
(11.7135 -3.98957 0)
(10.0341 -0.177228 0)
(10.1018 -0.186125 0)
(10.1718 -0.203576 0)
(10.2457 -0.229871 0)
(10.3257 -0.265886 0)
(10.4139 -0.313097 0)
(10.512 -0.373691 0)
(10.6217 -0.450734 0)
(10.7444 -0.548446 0)
(10.881 -0.672565 0)
(11.0311 -0.830819 0)
(11.192 -1.03342 0)
(11.3569 -1.29332 0)
(11.5117 -1.6256 0)
(11.6308 -2.0445 0)
(11.674 -2.55571 0)
(11.5897 -3.1419 0)
(11.334 -3.7457 0)
(10.0324 -0.200691 0)
(10.0967 -0.210641 0)
(10.163 -0.230127 0)
(10.2327 -0.259423 0)
(10.3077 -0.299414 0)
(10.3895 -0.351604 0)
(10.4797 -0.418193 0)
(10.5792 -0.502208 0)
(10.6884 -0.607702 0)
(10.8072 -0.739984 0)
(10.9336 -0.905848 0)
(11.0633 -1.11367 0)
(11.1876 -1.37303 0)
(11.292 -1.6934 0)
(11.3535 -2.08077 0)
(11.3415 -2.5315 0)
(11.2228 -3.02371 0)
(10.9757 -3.51163 0)
(10.0303 -0.226433 0)
(10.0901 -0.237474 0)
(10.1516 -0.25906 0)
(10.2159 -0.291418 0)
(10.2844 -0.335403 0)
(10.3584 -0.392479 0)
(10.4387 -0.464764 0)
(10.5257 -0.555098 0)
(10.6189 -0.667152 0)
(10.7171 -0.805502 0)
(10.8171 -0.975623 0)
(10.9133 -1.18364 0)
(10.9967 -1.43559 0)
(11.0537 -1.73581 0)
(11.0658 -2.08409 0)
(11.0119 -2.47171 0)
(10.8728 -2.87752 0)
(10.6404 -3.26797 0)
(10.0274 -0.254004 0)
(10.0816 -0.266124 0)
(10.137 -0.289766 0)
(10.1943 -0.325074 0)
(10.2548 -0.372815 0)
(10.3191 -0.43433 0)
(10.3874 -0.511526 0)
(10.4595 -0.606886 0)
(10.5343 -0.723468 0)
(10.6094 -0.864838 0)
(10.681 -1.03487 0)
(10.7433 -1.23731 0)
(10.7875 -1.47487 0)
(10.8024 -1.74788 0)
(10.7749 -2.05232 0)
(10.6917 -2.37787 0)
(10.5435 -2.70693 0)
(10.3291 -3.01651 0)
(10.0238 -0.282498 0)
(10.0708 -0.295603 0)
(10.1184 -0.321096 0)
(10.1672 -0.358993 0)
(10.2177 -0.409902 0)
(10.2703 -0.474935 0)
(10.3245 -0.555653 0)
(10.3795 -0.654007 0)
(10.4337 -0.772243 0)
(10.4841 -0.912733 0)
(10.5268 -1.07767 0)
(10.5562 -1.26857 0)
(10.5651 -1.48553 0)
(10.5451 -1.72628 0)
(10.4879 -1.98516 0)
(10.3864 -2.25257 0)
(10.2373 -2.51533 0)
(10.0424 -2.75854 0)
(10.0193 -0.310346 0)
(10.0573 -0.324233 0)
(10.0954 -0.351154 0)
(10.1337 -0.39095 0)
(10.1723 -0.443992 0)
(10.211 -0.51106 0)
(10.2491 -0.593244 0)
(10.2853 -0.691823 0)
(10.3175 -0.808122 0)
(10.3429 -0.943287 0)
(10.3576 -1.09798 0)
(10.3571 -1.27196 0)
(10.3361 -1.46362 0)
(10.2892 -1.66944 0)
(10.2117 -1.88377 0)
(10.1008 -2.09885 0)
(9.95606 -2.30557 0)
(9.78064 -2.49477 0)
(10.0138 -0.335072 0)
(10.0409 -0.349397 0)
(10.0674 -0.377055 0)
(10.0932 -0.417672 0)
(10.118 -0.471317 0)
(10.1412 -0.538358 0)
(10.1617 -0.619327 0)
(10.1779 -0.714785 0)
(10.1879 -0.825148 0)
(10.189 -0.950488 0)
(10.1783 -1.09029 0)
(10.1523 -1.24319 0)
(10.1078 -1.40677 0)
(10.0416 -1.57739 0)
(9.95193 -1.75024 0)
(9.83803 -1.91968 0)
(9.70109 -2.07982 0)
(9.54403 -2.22526 0)
(10.0073 -0.353047 0)
(10.0213 -0.367314 0)
(10.0344 -0.394732 0)
(10.046 -0.434699 0)
(10.0554 -0.48695 0)
(10.0617 -0.551413 0)
(10.0637 -0.628065 0)
(10.06 -0.7168 0)
(10.0488 -0.817284 0)
(10.028 -0.928806 0)
(9.99552 -1.05014 0)
(9.9493 -1.17944 0)
(9.88755 -1.31419 0)
(9.80903 -1.45123 0)
(9.7133 -1.58693 0)
(9.60088 -1.71752 0)
(9.47329 -1.83936 0)
(9.33295 -1.94943 0)
(9.99987 -0.359331 0)
(9.99918 -0.372904 0)
(9.99722 -0.398857 0)
(9.99318 -0.436386 0)
(9.98615 -0.484923 0)
(9.97511 -0.544002 0)
(9.95892 -0.613142 0)
(9.93631 -0.691734 0)
(9.90594 -0.778951 0)
(9.86647 -0.873663 0)
(9.81665 -0.974388 0)
(9.75547 -1.07927 0)
(9.68228 -1.18614 0)
(9.59687 -1.29256 0)
(9.49962 -1.39603 0)
(9.39142 -1.49412 0)
(9.2737 -1.5847 0)
(9.14821 -1.66606 0)
(9.99238 -0.350562 0)
(9.97697 -0.362914 0)
(9.96019 -0.386424 0)
(9.94112 -0.42017 0)
(9.91876 -0.463386 0)
(9.89208 -0.515355 0)
(9.86012 -0.57532 0)
(9.82189 -0.642415 0)
(9.77651 -0.715605 0)
(9.72321 -0.793661 0)
(9.6614 -0.875157 0)
(9.59074 -0.958488 0)
(9.51122 -1.04194 0)
(9.42316 -1.12375 0)
(9.32721 -1.20224 0)
(9.22435 -1.27589 0)
(9.11584 -1.34341 0)
(9.00311 -1.40383 0)
(9.98607 -0.328859 0)
(9.95831 -0.339732 0)
(9.92926 -0.360346 0)
(9.89801 -0.389754 0)
(9.86353 -0.427112 0)
(9.82488 -0.471597 0)
(9.78126 -0.522353 0)
(9.73195 -0.578442 0)
(9.67638 -0.638824 0)
(9.61416 -0.70235 0)
(9.54509 -0.767777 0)
(9.4692 -0.833807 0)
(9.38674 -0.899131 0)
(9.29822 -0.962496 0)
(9.20435 -1.02276 0)
(9.10602 -1.07895 0)
(9.00424 -1.1303 0)
(8.9001 -1.17628 0)
(9.98121 -0.298252 0)
(9.94396 -0.307595 0)
(9.90558 -0.325256 0)
(9.8652 -0.350333 0)
(9.82181 -0.381993 0)
(9.77457 -0.419416 0)
(9.7228 -0.461756 0)
(9.66598 -0.508121 0)
(9.60374 -0.557559 0)
(9.53592 -0.609068 0)
(9.46252 -0.661617 0)
(9.38376 -0.714173 0)
(9.29999 -0.765746 0)
(9.21179 -0.815425 0)
(9.11982 -0.862413 0)
(9.02487 -0.906061 0)
(8.92778 -0.945881 0)
(8.8294 -0.981555 0)
(9.97752 -0.263619 0)
(9.9331 -0.27153 0)
(9.88769 -0.286451 0)
(9.84053 -0.307566 0)
(9.79063 -0.334102 0)
(9.73721 -0.365301 0)
(9.67969 -0.400388 0)
(9.61769 -0.43856 0)
(9.55098 -0.478989 0)
(9.47952 -0.520829 0)
(9.40343 -0.563235 0)
(9.32301 -0.605391 0)
(9.23868 -0.646535 0)
(9.15098 -0.685988 0)
(9.06055 -0.723173 0)
(8.96808 -0.757635 0)
(8.87429 -0.789044 0)
(8.77989 -0.817194 0)
(9.97476 -0.22781 0)
(9.92497 -0.234423 0)
(9.87435 -0.246874 0)
(9.82219 -0.264448 0)
(9.76753 -0.286463 0)
(9.70966 -0.312246 0)
(9.64807 -0.341115 0)
(9.58246 -0.372379 0)
(9.51269 -0.405333 0)
(9.4388 -0.439277 0)
(9.36099 -0.473525 0)
(9.27957 -0.507428 0)
(9.195 -0.540397 0)
(9.10779 -0.571914 0)
(9.01855 -0.601552 0)
(8.92789 -0.628978 0)
(8.83644 -0.65396 0)
(8.74482 -0.676357 0)
(9.97272 -0.192621 0)
(9.91897 -0.198072 0)
(9.86451 -0.208323 0)
(9.8087 -0.222766 0)
(9.75059 -0.240816 0)
(9.68953 -0.261895 0)
(9.62505 -0.285425 0)
(9.5569 -0.310822 0)
(9.48502 -0.337503 0)
(9.40949 -0.364893 0)
(9.33053 -0.392441 0)
(9.2485 -0.419634 0)
(9.16383 -0.446011 0)
(9.07705 -0.471173 0)
(8.98869 -0.494799 0)
(8.89934 -0.516641 0)
(8.80956 -0.536529 0)
(8.7199 -0.554364 0)
(9.97123 -0.159117 0)
(9.9146 -0.163535 0)
(9.85737 -0.171838 0)
(9.79891 -0.183519 0)
(9.73833 -0.198093 0)
(9.67499 -0.215079 0)
(9.60846 -0.233998 0)
(9.53854 -0.254371 0)
(9.4652 -0.275722 0)
(9.38854 -0.29759 0)
(9.30882 -0.319535 0)
(9.22639 -0.341154 0)
(9.1417 -0.362087 0)
(9.05524 -0.382029 0)
(8.96754 -0.400734 0)
(8.87913 -0.418014 0)
(8.79053 -0.433745 0)
(8.70224 -0.447855 0)
(9.97017 -0.127882 0)
(9.91148 -0.131384 0)
(9.85227 -0.137962 0)
(9.79194 -0.147207 0)
(9.72961 -0.158729 0)
(9.66466 -0.172138 0)
(9.59671 -0.18705 0)
(9.52556 -0.203081 0)
(9.4512 -0.219854 0)
(9.37377 -0.237005 0)
(9.29354 -0.254191 0)
(9.21086 -0.271098 0)
(9.12618 -0.287449 0)
(9.03996 -0.30301 0)
(8.95273 -0.317596 0)
(8.86497 -0.331065 0)
(8.7772 -0.343324 0)
(8.68987 -0.354323 0)
(9.96943 -0.0991805 0)
(9.90932 -0.101871 0)
(9.84873 -0.10692 0)
(9.7871 -0.114014 0)
(9.72356 -0.122847 0)
(9.65751 -0.133116 0)
(9.58858 -0.144525 0)
(9.51659 -0.156775 0)
(9.44154 -0.169579 0)
(9.3636 -0.182656 0)
(9.28303 -0.195746 0)
(9.20019 -0.208611 0)
(9.11551 -0.221043 0)
(9.02947 -0.232868 0)
(8.94256 -0.243945 0)
(8.85526 -0.254171 0)
(8.76806 -0.263479 0)
(8.68139 -0.271829 0)
(9.96894 -0.0730768 0)
(9.90787 -0.075046 0)
(9.84636 -0.0787413 0)
(9.78387 -0.0839302 0)
(9.71953 -0.0903872 0)
(9.65275 -0.09789 0)
(9.58316 -0.106219 0)
(9.51062 -0.115156 0)
(9.43512 -0.124489 0)
(9.35684 -0.134015 0)
(9.27605 -0.143543 0)
(9.19311 -0.152902 0)
(9.10844 -0.161941 0)
(9.02252 -0.170535 0)
(8.93583 -0.178583 0)
(8.84883 -0.186012 0)
(8.762 -0.192772 0)
(8.67577 -0.198838 0)
(9.96863 -0.0495099 0)
(9.90696 -0.0508385 0)
(9.84488 -0.0533312 0)
(9.78184 -0.0568305 0)
(9.717 -0.0611834 0)
(9.64976 -0.0662393 0)
(9.57977 -0.0718492 0)
(9.50688 -0.0778661 0)
(9.43111 -0.0841467 0)
(9.35262 -0.090554 0)
(9.27169 -0.0969603 0)
(9.18868 -0.10325 0)
(9.10403 -0.109323 0)
(9.01818 -0.115095 0)
(8.93162 -0.1205 0)
(8.84482 -0.125488 0)
(8.75822 -0.130027 0)
(8.67226 -0.1341 0)
(9.96846 -0.0283465 0)
(9.90645 -0.0291054 0)
(9.84405 -0.030529 0)
(9.78071 -0.0325273 0)
(9.71559 -0.0350125 0)
(9.6481 -0.0378983 0)
(9.57788 -0.0410996 0)
(9.5048 -0.0445323 0)
(9.42887 -0.0481144 0)
(9.35026 -0.0517678 0)
(9.26926 -0.0554197 0)
(9.18622 -0.0590046 0)
(9.10157 -0.0624651 0)
(9.01577 -0.0657536 0)
(8.92928 -0.0688324 0)
(8.84258 -0.0716738 0)
(8.75612 -0.0742593 0)
(8.6703 -0.0765796 0)
(9.96838 -0.00941499 0)
(9.90624 -0.00966677 0)
(9.8437 -0.0101391 0)
(9.78024 -0.010802 0)
(9.715 -0.0116264 0)
(9.6474 -0.0125836 0)
(9.57709 -0.0136453 0)
(9.50392 -0.0147836 0)
(9.42793 -0.0159714 0)
(9.34928 -0.0171826 0)
(9.26824 -0.0183932 0)
(9.18519 -0.0195815 0)
(9.10054 -0.0207284 0)
(9.01475 -0.0218183 0)
(8.9283 -0.0228386 0)
(8.84165 -0.0237802 0)
(8.75524 -0.024637 0)
(8.66949 -0.0254059 0)
(0.0533924 -0.114628 0)
(0.160926 -0.114589 0)
(0.269034 -0.114406 0)
(0.377788 -0.114078 -4.06055e-034)
(0.487051 -0.113605 0)
(0.596685 -0.112984 0)
(0.706544 -0.112218 0)
(0.816484 -0.111308 0)
(0.926358 -0.110257 0)
(1.03602 -0.109069 0)
(1.14532 -0.107747 -3.79624e-034)
(1.25411 -0.106297 0)
(1.36225 -0.104725 0)
(1.4696 -0.103038 0)
(1.57602 -0.101244 0)
(1.68139 -0.0993497 0)
(1.78557 -0.0973644 0)
(1.88845 -0.0952966 0)
(1.98992 -0.0931552 0)
(2.08987 -0.0909493 0)
(2.1882 -0.088688 3.0676e-034)
(2.28482 -0.0863805 0)
(2.37966 -0.0840356 2.89341e-034)
(2.47264 -0.0816621 0)
(2.56369 -0.0792685 -2.71573e-034)
(2.65276 -0.0768629 -2.62633e-034)
(2.7398 -0.0744531 0)
(2.82478 -0.0720462 0)
(2.90765 -0.0696493 0)
(2.98839 -0.0672685 0)
(3.06699 -0.0649099 2.18431e-034)
(3.14343 -0.0625788 0)
(3.21771 -0.06028 0)
(3.28983 -0.0580179 0)
(3.35979 -0.0557963 0)
(3.42762 -0.0536186 0)
(3.49332 -0.0514878 1.6915e-034)
(3.55691 -0.0494063 0)
(3.61842 -0.0473762 0)
(3.67788 -0.0453992 -2.93806e-034)
(3.73532 -0.0434766 0)
(3.79077 -0.0416095 -2.66177e-034)
(3.84427 -0.0397984 0)
(3.89585 -0.0380439 0)
(3.94556 -0.036346 -2.27888e-034)
(3.99344 -0.0347048 0)
(4.03953 -0.0331198 0)
(4.08388 -0.0315907 0)
(4.12652 -0.0301167 1.82707e-034)
(4.16751 -0.0286973 0)
(4.20688 -0.0273313 0)
(4.24469 -0.026018 1.53065e-034)
(4.28098 -0.0247562 1.43955e-034)
(4.31579 -0.0235446 -1.35216e-034)
(4.34917 -0.0223823 0)
(4.38116 -0.0212677 0)
(4.41182 -0.0201998 1.11127e-034)
(4.44117 -0.019177 -1.03774e-034)
(4.46927 -0.0181982 0)
(4.49615 -0.0172619 9.00242e-035)
(4.52186 -0.0163668 0)
(4.54645 -0.0155116 -7.74789e-035)
(4.56994 -0.0146948 0)
(4.59238 -0.0139151 0)
(4.6138 -0.0131713 0)
(4.63425 -0.012462 0)
(4.65376 -0.0117859 0)
(4.67236 -0.0111418 0)
(4.69009 -0.0105284 0)
(4.70699 -0.00994465 0)
(4.72309 -0.00938924 -3.38187e-035)
(4.73841 -0.00886105 0)
(4.75299 -0.00835899 -2.65174e-035)
(4.76686 -0.00788199 0)
(4.78005 -0.00742896 0)
(4.79258 -0.00699893 0)
(4.80449 -0.00659088 -1.40316e-035)
(4.8158 -0.00620389 0)
(4.82653 -0.00583698 0)
(4.83671 -0.00548933 -6.28999e-036)
(4.84637 -0.00516003 0)
(4.85552 -0.00484828 1.80169e-036)
(4.8642 -0.00455325 0)
(4.87241 -0.0042742 4.40868e-036)
(4.88019 -0.00401035 0)
(4.88755 -0.00376102 0)
(4.8945 -0.00352551 0)
(4.90108 -0.00330314 0)
(4.9073 -0.0030933 0)
(4.91317 -0.00289537 2.35109e-035)
(4.91871 -0.00270875 0)
(4.92393 -0.00253291 2.84859e-035)
(4.92886 -0.00236728 0)
(4.93351 -0.00221134 -3.28761e-035)
(4.93789 -0.00206463 3.48704e-035)
(4.94201 -0.00192664 0)
(4.94589 -0.00179694 0)
(4.94953 -0.00167507 0)
(4.95296 -0.00156064 0)
(4.95619 -0.00145324 0)
(4.95921 -0.0013525 0)
(4.96205 -0.00125804 0)
(4.96472 -0.00116954 0)
(4.96722 -0.00108664 0)
(4.96956 -0.00100907 0)
(4.97175 -0.000936477 -4.98898e-035)
(4.9738 -0.000868605 0)
(4.97572 -0.00080519 0)
(4.97752 -0.000745951 -5.23219e-035)
(4.9792 -0.000690672 0)
(4.98076 -0.000639096 0)
(4.98223 -0.000590998 0)
(4.98359 -0.000546171 -5.47971e-035)
(4.98486 -0.000504447 0)
(4.98604 -0.000465604 -5.57616e-035)
(4.98715 -0.00042947 0)
(4.98817 -0.000395876 0)
(4.98913 -0.00036465 0)
(4.99001 -0.000335673 0)
(4.99083 -0.00030876 0)
(4.9916 -0.000283816 -5.7807e-035)
(4.9923 -0.000260673 0)
(4.99296 -0.000239237 0)
(4.99357 -0.000219387 0)
(4.99413 -0.000201008 -5.86271e-035)
(4.99465 -0.000184003 -5.87791e-035)
(4.99513 -0.000168284 0)
(4.99557 -0.000153751 0)
(4.99597 -0.00014031 0)
(4.99635 -0.000127913 -1.18439e-034)
(4.99669 -0.000116443 -1.18584e-034)
(4.99701 -0.000105865 0)
(4.9973 -9.60831e-005 0)
(4.99756 -8.70593e-005 0)
(4.99781 -7.87245e-005 1.18935e-034)
(4.99803 -7.1018e-005 0)
(4.99823 -6.38941e-005 1.18992e-034)
(4.99841 -5.73007e-005 1.18996e-034)
(4.99857 -5.11854e-005 -1.18986e-034)
(4.99872 -4.55119e-005 -1.18962e-034)
(4.99885 -4.02436e-005 0)
(4.99897 -3.53383e-005 0)
(4.99908 -3.07475e-005 0)
(4.99917 -2.64553e-005 -1.18753e-034)
(4.99924 -2.24157e-005 0)
(4.99931 -1.85981e-005 1.18594e-034)
(4.99937 -1.49805e-005 -1.18504e-034)
(4.99941 -1.1533e-005 -1.18408e-034)
(4.99944 -8.22383e-006 0)
(4.99946 -5.03762e-006 0)
(4.99948 -1.94647e-006 0)
(4.99948 1.05827e-006 1.17973e-034)
(4.99947 3.99974e-006 0)
(4.99945 6.87168e-006 0)
(4.99942 9.69459e-006 0)
(4.99938 1.24628e-005 -1.17476e-034)
(4.99933 1.51674e-005 0)
(4.99927 1.7789e-005 1.17207e-034)
(4.9992 2.0287e-005 0)
(4.99912 2.26123e-005 0)
(4.99904 2.46952e-005 -1.1676e-034)
(4.99894 2.64225e-005 1.16594e-034)
(4.99884 2.76716e-005 0)
(4.99873 2.82489e-005 0)
(4.99862 2.7914e-005 1.15992e-034)
(4.99851 2.63738e-005 0)
(4.99842 2.32278e-005 0)
(4.99834 1.80112e-005 0)
(4.99828 1.01174e-005 0)
(4.99826 -1.16523e-006 0)
(4.9983 -1.669e-005 0)
(4.99841 -3.74271e-005 0)
(4.99862 -6.44492e-005 2.24026e-034)
(4.99897 -9.88716e-005 0)
(4.99948 -0.000141763 0)
(5.0002 -0.00019397 0)
(5.00118 -0.000255929 0)
(5.00246 -0.000327391 0)
(5.00409 -0.000407261 0)
(5.00611 -0.000493639 -2.00801e-034)
(0.0536931 -0.344531 0)
(0.161831 -0.34441 0)
(0.270542 -0.343855 -2.45299e-033)
(0.379895 -0.342861 -1.22294e-033)
(0.48975 -0.341425 0)
(0.599963 -0.339546 0)
(0.710388 -0.337227 0)
(0.820874 -0.334472 2.3731e-033)
(0.931271 -0.331291 0)
(1.04143 -0.327694 0)
(1.1512 -0.323695 -3.43676e-033)
(1.26043 -0.31931 0)
(1.36897 -0.314558 2.2185e-033)
(1.47669 -0.309461 0)
(1.58345 -0.30404 0)
(1.68912 -0.29832 0)
(1.79356 -0.292326 -2.05065e-033)
(1.89666 -0.286086 0)
(1.99831 -0.279625 0)
(2.0984 -0.272972 0)
(2.19684 -0.266155 9.35201e-034)
(2.29354 -0.259201 0)
(2.38842 -0.252136 8.83989e-034)
(2.4814 -0.244988 1.69931e-033)
(2.57243 -0.237781 -8.31708e-034)
(2.66145 -0.230541 -2.39842e-033)
(2.74842 -0.22329 0)
(2.83329 -0.216051 1.48676e-033)
(2.91604 -0.208843 1.43401e-033)
(2.99664 -0.201687 0)
(3.07508 -0.194598 6.75197e-034)
(3.15135 -0.187594 1.27887e-033)
(3.22544 -0.180689 0)
(3.29737 -0.173896 0)
(3.36713 -0.167226 -1.13064e-033)
(3.43474 -0.160689 -1.08316e-033)
(3.50022 -0.154294 5.2998e-034)
(3.56359 -0.148048 0)
(3.62488 -0.141957 1.89475e-033)
(3.68411 -0.136027 8.80094e-034)
(3.74132 -0.130261 -1.72555e-033)
(3.79654 -0.124662 -8.4741e-034)
(3.84982 -0.119231 0)
(3.90118 -0.113971 0)
(3.95067 -0.108882 -7.34569e-034)
(3.99834 -0.103962 0)
(4.04422 -0.0992115 0)
(4.08836 -0.0946289 1.21194e-033)
(4.1308 -0.090212 6.01408e-034)
(4.17159 -0.0859586 0)
(4.21078 -0.081866 0)
(4.2484 -0.0779311 5.1404e-034)
(4.28451 -0.0741506 4.87185e-034)
(4.31915 -0.0705212 -4.61422e-034)
(4.35237 -0.067039 0)
(4.3842 -0.0637003 7.68718e-034)
(4.4147 -0.0605013 3.90401e-034)
(4.44391 -0.0574378 -3.6872e-034)
(4.47187 -0.0545059 6.3755e-034)
(4.49862 -0.0517015 3.2817e-034)
(4.5242 -0.0490205 0)
(4.54866 -0.0464588 -2.91165e-034)
(4.57203 -0.0440124 0)
(4.59436 -0.0416773 0)
(4.61568 -0.0394494 0)
(4.63602 -0.037325 0)
(4.65543 -0.0353001 0)
(4.67394 -0.0333711 3.37495e-034)
(4.69159 -0.031534 0)
(4.7084 -0.0297856 0)
(4.72441 -0.0281222 -1.62286e-034)
(4.73966 -0.0265402 0)
(4.75417 -0.0250366 -1.40707e-034)
(4.76797 -0.023608 1.99877e-034)
(4.78109 -0.0222512 -1.80825e-034)
(4.79356 -0.0209632 0)
(4.80541 -0.0197411 -1.03776e-034)
(4.81666 -0.018582 -1.29418e-034)
(4.82734 -0.0174832 -1.1406e-034)
(4.83748 -0.0164419 -8.08484e-035)
(4.84709 -0.0154557 0)
(4.8562 -0.0145219 1.40318e-034)
(4.86483 -0.0136383 0)
(4.873 -0.0128025 -1.113e-034)
(4.88074 -0.0120123 0)
(4.88806 -0.0112655 5.51997e-035)
(4.89499 -0.0105601 0)
(4.90154 -0.00989406 1.73287e-035)
(4.90772 -0.00926554 0)
(4.91356 -0.00867271 -3.81696e-035)
(4.91908 -0.00811376 0)
(4.92428 -0.00758706 6.45277e-036)
(4.92919 -0.00709097 0)
(4.93381 -0.00662389 -4.58908e-035)
(4.93817 -0.00618446 -1.0475e-034)
(4.94227 -0.00577113 0)
(4.94613 -0.00538265 -1.06024e-034)
(4.94976 -0.00501762 0)
(4.95317 -0.00467487 0)
(4.95638 -0.00435318 0)
(4.95939 -0.00405142 0)
(4.96222 -0.00376848 1.49356e-034)
(4.96487 -0.00350338 -1.564e-034)
(4.96736 -0.00325509 0)
(4.96969 -0.00302269 0)
(4.97188 -0.00280527 -1.99872e-034)
(4.97392 -0.00260197 0)
(4.97583 -0.002412 0)
(4.97762 -0.00223457 -3.26164e-035)
(4.97929 -0.00206896 0)
(4.98085 -0.00191447 1.97829e-034)
(4.9823 -0.00177039 2.0148e-034)
(4.98366 -0.00163614 1.64426e-034)
(4.98492 -0.00151114 0)
(4.9861 -0.00139479 -4.35444e-035)
(4.9872 -0.00128654 0)
(4.98822 -0.00118591 2.15951e-034)
(4.98917 -0.00109239 0)
(4.99005 -0.00100557 0)
(4.99087 -0.000924958 -2.22131e-034)
(4.99163 -0.000850227 -5.04126e-035)
(4.99234 -0.000780899 0)
(4.99299 -0.000716689 0)
(4.99359 -0.000657227 -2.28138e-034)
(4.99415 -0.00060217 -5.3416e-035)
(4.99467 -0.000551239 1.76349e-034)
(4.99514 -0.000504144 -2.31312e-034)
(4.99558 -0.000460608 -4.64323e-034)
(4.99599 -0.00042035 4.65834e-034)
(4.99636 -0.000383195 3.55328e-034)
(4.9967 -0.000348841 -1.12593e-034)
(4.99702 -0.000317143 0)
(4.99731 -0.000287848 0)
(4.99757 -0.000260814 0)
(4.99781 -0.000235846 1.14906e-034)
(4.99803 -0.000212751 0)
(4.99823 -0.00019141 5.88445e-034)
(4.99841 -0.000171655 5.89147e-034)
(4.99858 -0.000153342 -1.16381e-034)
(4.99872 -0.000136346 -1.16649e-034)
(4.99886 -0.000120563 4.73664e-034)
(4.99897 -0.000105862 4.73726e-034)
(4.99908 -9.21088e-005 0)
(4.99917 -7.9244e-005 -1.17418e-034)
(4.99925 -6.71391e-005 4.73583e-034)
(4.99931 -5.57037e-005 1.17658e-034)
(4.99937 -4.48637e-005 -1.17751e-034)
(4.99941 -3.45269e-005 -5.90884e-034)
(4.99944 -2.46107e-005 0)
(4.99946 -1.50578e-005 -4.72547e-034)
(4.99948 -5.79295e-006 -4.72255e-034)
(4.99948 3.21323e-006 5.89972e-034)
(4.99947 1.20261e-005 -4.71614e-034)
(4.99945 2.06456e-005 0)
(4.99942 2.91147e-005 0)
(4.99938 3.74234e-005 -1.18096e-034)
(4.99933 4.55426e-005 0)
(4.99927 5.34122e-005 1.18088e-034)
(4.9992 6.09205e-005 0)
(4.99912 6.7918e-005 -4.68785e-034)
(4.99903 7.41925e-005 3.50283e-034)
(4.99894 7.94137e-005 5.85576e-034)
(4.99883 8.32046e-005 0)
(4.99873 8.49921e-005 0)
(4.99862 8.40636e-005 1.17364e-034)
(4.99851 7.95319e-005 0)
(4.99841 7.0211e-005 0)
(4.99832 5.46911e-005 -4.613e-034)
(4.99826 3.11668e-005 4.5928e-034)
(4.99824 -2.50574e-006 0)
(4.99828 -4.88787e-005 0)
(4.99838 -0.000110877 0)
(4.99859 -0.000191731 2.17897e-034)
(4.99893 -0.000294813 0)
(4.99943 -0.000423356 0)
(5.00015 -0.000579947 0)
(5.00112 -0.000765926 8.28495e-034)
(5.00239 -0.00098059 0)
(5.00402 -0.00122062 0)
(5.00603 -0.00148011 -1.53987e-034)
(0.0543028 -0.576389 0)
(0.163666 -0.576177 -4.11494e-033)
(0.273599 -0.57523 -4.10598e-033)
(0.384166 -0.573538 0)
(0.495219 -0.571095 0)
(0.606607 -0.567902 4.03953e-033)
(0.718174 -0.563962 4.00732e-033)
(0.829764 -0.559286 5.60042e-036)
(0.941219 -0.553889 0)
(1.05238 -0.54779 0)
(1.1631 -0.541014 -3.83531e-033)
(1.27321 -0.533588 -7.5412e-033)
(1.38257 -0.525547 3.71869e-033)
(1.49104 -0.516925 7.28823e-033)
(1.59846 -0.507762 7.15014e-033)
(1.70472 -0.4981 0)
(1.80967 -0.487984 -3.43904e-033)
(1.91321 -0.477457 0)
(2.01522 -0.466568 0)
(2.1156 -0.455363 0)
(2.21425 -0.443888 0)
(2.31109 -0.432191 0)
(2.40604 -0.420317 0)
(2.49903 -0.408311 2.85401e-033)
(2.59001 -0.396214 0)
(2.67892 -0.384069 -7.99618e-033)
(2.76572 -0.371914 0)
(2.85039 -0.359786 2.50076e-033)
(2.93288 -0.347718 2.41317e-033)
(3.01319 -0.335742 -4.61258e-033)
(3.09131 -0.323886 0)
(3.16723 -0.312178 2.15578e-033)
(3.24094 -0.300641 0)
(3.31247 -0.289296 -3.93694e-033)
(3.38181 -0.278162 -1.91014e-033)
(3.44899 -0.267254 -5.44879e-033)
(3.51403 -0.256588 0)
(3.57695 -0.246174 0)
(3.63778 -0.236023 3.21352e-033)
(3.69656 -0.226141 3.07154e-033)
(3.75331 -0.216536 -2.93364e-033)
(3.80808 -0.207212 0)
(3.8609 -0.198172 0)
(3.91182 -0.189416 2.49322e-033)
(3.96088 -0.180947 0)
(4.00811 -0.172762 0)
(4.05357 -0.164859 0)
(4.0973 -0.157238 5.39397e-035)
(4.13934 -0.149893 -1.92548e-033)
(4.17974 -0.14282 1.82413e-033)
(4.21855 -0.136016 0)
(4.25581 -0.129475 -1.6331e-033)
(4.29157 -0.123192 0)
(4.32587 -0.11716 1.45708e-033)
(4.35875 -0.111373 0)
(4.39027 -0.105825 1.35282e-033)
(4.42047 -0.100509 2.43914e-033)
(4.44938 -0.0954188 2.29415e-033)
(4.47706 -0.0905476 -1.01926e-033)
(4.50354 -0.0858883 0)
(4.52886 -0.0814343 0)
(4.55308 -0.0771786 1.77564e-033)
(4.57621 -0.0731145 0)
(4.59831 -0.0692354 0)
(4.61942 -0.0655346 0)
(4.63956 -0.0620056 1.34577e-033)
(4.65877 -0.058642 0)
(4.67709 -0.0554376 6.40797e-034)
(4.69456 -0.0523862 0)
(4.71121 -0.0494818 0)
(4.72706 -0.0467186 0)
(4.74215 -0.044091 -8.40496e-034)
(4.75652 -0.0415933 7.703e-034)
(4.77018 -0.0392201 4.13451e-034)
(4.78317 -0.0369664 2.58502e-034)
(4.79552 -0.0348269 5.80532e-034)
(4.80726 -0.0327969 0)
(4.8184 -0.0308715 1.72923e-034)
(4.82897 -0.0290461 -6.90536e-034)
(4.83901 -0.0273164 -3.70717e-034)
(4.84852 -0.0256781 -3.25091e-034)
(4.85754 -0.024127 2.03297e-034)
(4.86609 -0.0226591 0)
(4.87419 -0.0212706 0)
(4.88185 -0.0199579 -1.66305e-034)
(4.8891 -0.0187173 2.57006e-034)
(4.89596 -0.0175454 0)
(4.90244 -0.016439 1.94254e-034)
(4.90857 -0.0153948 0)
(4.91436 -0.0144099 -1.38527e-034)
(4.91982 -0.0134813 -1.21386e-035)
(4.92497 -0.0126063 -5.30446e-035)
(4.92983 -0.0117821 0)
(4.93441 -0.0110061 1.25234e-034)
(4.93873 -0.010276 2.55896e-035)
(4.94279 -0.00958933 1.18271e-034)
(4.94661 -0.00894389 -1.46323e-034)
(4.95021 -0.00833743 0)
(4.95359 -0.00776796 0)
(4.95677 -0.00723349 -1.81829e-034)
(4.95976 -0.00673211 -1.95257e-034)
(4.96256 -0.00626201 8.28599e-035)
(4.96518 -0.00582154 3.44411e-034)
(4.96765 -0.00540901 0)
(4.96996 -0.00502285 4.81328e-034)
(4.97212 -0.00466158 -1.25504e-034)
(4.97415 -0.0043238 5.18026e-034)
(4.97604 -0.00400814 0)
(4.97781 -0.00371333 5.49776e-034)
(4.97946 -0.00343814 -5.63976e-034)
(4.98101 -0.00318141 1.64367e-034)
(4.98245 -0.00294202 -4.18775e-034)
(4.9838 -0.00271896 1.76324e-034)
(4.98505 -0.00251124 0)
(4.98622 -0.00231791 6.20717e-034)
(4.98731 -0.00213801 6.29607e-034)
(4.98832 -0.00197079 1.95363e-034)
(4.98926 -0.00181541 0)
(4.99013 -0.00167111 0)
(4.99095 -0.00153719 -8.64703e-034)
(4.9917 -0.00141298 0)
(4.9924 -0.00129778 0)
(4.99304 -0.00119108 0)
(4.99364 -0.00109226 -2.16823e-034)
(4.9942 -0.00100077 0)
(4.99471 -0.000916139 2.20897e-034)
(4.99518 -0.000837874 -2.22665e-034)
(4.99562 -0.000765506 -4.48544e-034)
(4.99602 -0.000698626 -2.43784e-034)
(4.99639 -0.000636851 1.15165e-033)
(4.99673 -0.000579768 0)
(4.99704 -0.00052708 7.01447e-034)
(4.99733 -0.00047841 0)
(4.99759 -0.000433474 0)
(4.99783 -0.000391975 -7.05618e-034)
(4.99804 -0.000353587 0)
(4.99824 -0.000318115 4.66235e-034)
(4.99842 -0.000285276 4.6727e-034)
(4.99858 -0.000254854 0)
(4.99873 -0.000226601 0)
(4.99886 -0.000200368 4.69607e-034)
(4.99898 -0.000175922 -2.39546e-034)
(4.99908 -0.00015307 7.09836e-034)
(4.99917 -0.000131672 0)
(4.99925 -0.00011155 4.71338e-034)
(4.99931 -9.25367e-005 0)
(4.99937 -7.45115e-005 0)
(4.99941 -5.73108e-005 -1.89051e-033)
(4.99944 -4.082e-005 0)
(4.99946 -2.49217e-005 -4.72052e-034)
(4.99947 -9.50991e-006 -4.72069e-034)
(4.99947 5.48023e-006 4.72058e-034)
(4.99947 2.01394e-005 9.43031e-034)
(4.99945 3.45095e-005 0)
(4.99942 4.86235e-005 0)
(4.99938 6.24824e-005 0)
(4.99933 7.60317e-005 0)
(4.99927 8.91732e-005 0)
(4.9992 0.000101738 0)
(4.99912 0.000113468 -1.87852e-033)
(4.99903 0.000124012 -9.35317e-034)
(4.99893 0.00013284 -9.34076e-034)
(4.99883 0.000139306 0)
(4.99872 0.000142476 1.40022e-033)
(4.9986 0.000141178 -1.3975e-033)
(4.99849 0.000133922 1.39419e-033)
(4.99839 0.000118766 -1.39009e-033)
(4.9983 9.33367e-005 -4.63176e-034)
(4.99824 5.46512e-005 1.83901e-033)
(4.99821 -8.76673e-007 0)
(4.99823 -7.74944e-005 0)
(4.99833 -0.000180113 0)
(4.99852 -0.000314158 1.33248e-033)
(4.99885 -0.000485334 0)
(4.99934 -0.000699123 0)
(5.00004 -0.000959991 0)
(5.00099 -0.00127031 -4.50806e-034)
(5.00225 -0.00162902 0)
(5.00386 -0.00203055 0)
(5.00587 -0.00246448 1.11139e-033)
(0.0552387 -0.811567 0)
(0.166482 -0.81125 -5.79508e-033)
(0.27829 -0.809874 0)
(0.390719 -0.807427 1.15108e-032)
(0.503609 -0.8039 0)
(0.616795 -0.799295 5.69024e-033)
(0.730109 -0.79362 5.64486e-033)
(0.843385 -0.786891 -5.59199e-033)
(0.956452 -0.77913 0)
(1.06914 -0.770367 0)
(1.1813 -0.760639 0)
(1.29275 -0.74999 -1.06196e-032)
(1.40334 -0.738468 -1.04273e-032)
(1.51292 -0.726127 1.02612e-032)
(1.62135 -0.713026 2.18073e-035)
(1.72849 -0.699225 0)
(1.83421 -0.68479 0)
(1.93839 -0.669786 0)
(2.04093 -0.654282 0)
(2.14172 -0.638345 0)
(2.24066 -0.622042 -8.69149e-033)
(2.33769 -0.605441 8.44674e-033)
(2.43273 -0.588607 0)
(2.52571 -0.571603 0)
(2.61658 -0.554489 0)
(2.70531 -0.537322 -7.48294e-033)
(2.79185 -0.520158 -7.1958e-033)
(2.87618 -0.503047 0)
(2.95828 -0.486037 0)
(3.03813 -0.469171 -6.4925e-033)
(3.11575 -0.452488 6.20925e-033)
(3.19112 -0.436026 5.96992e-033)
(3.26425 -0.419815 0)
(3.33516 -0.403886 -1.10511e-032)
(3.40386 -0.388263 0)
(3.47038 -0.372967 -5.10151e-033)
(3.53475 -0.358018 0)
(3.59699 -0.343432 0)
(3.65713 -0.32922 8.84616e-033)
(3.71522 -0.315393 0)
(3.77128 -0.301958 0)
(3.82536 -0.288922 0)
(3.87751 -0.276287 7.32029e-033)
(3.92776 -0.264055 3.53605e-033)
(3.97615 -0.252225 6.62834e-033)
(4.02274 -0.240797 -6.30007e-033)
(4.06757 -0.229766 5.98348e-033)
(4.11068 -0.21913 -2.89334e-033)
(4.15212 -0.208882 -8.13176e-033)
(4.19194 -0.199016 2.60624e-033)
(4.23018 -0.189527 4.83072e-033)
(4.26689 -0.180405 -2.34099e-033)
(4.30211 -0.171644 -4.31961e-033)