/*--------------------------------*- C++ -*----------------------------------*\
| =========                 |                                                 |
| \\      /  F ield         | OpenFOAM: The Open Source CFD Toolbox           |
|  \\    /   O peration     | Version:  2.1                                   |
|   \\  /    A nd           | Web:      www.OpenFOAM.org                      |
|    \\/     M anipulation  |                                                 |
\*---------------------------------------------------------------------------*/
/*   Windows 32 and 64 bit porting by blueCAPE: http://www.bluecape.com.pt   *\
|  Based on Windows porting (2.0.x v4) by Symscape: http://www.symscape.com   |
\*---------------------------------------------------------------------------*/
FoamFile
{
    version     2.0;
    format      ascii;
    class       volScalarField;
    location    "1";
    object      ccx;
}
// * * * * * * * * * * * * * * * * * * * * * * * * * * * * * * * * * * * * * //

dimensions      [0 1 0 0 0 0 0];

internalField   nonuniform List<scalar> 
512
(
-0.882433
-0.655912
-0.399086
-0.13111
0.139558
0.410238
0.671237
0.896155
-0.885349
-0.655655
-0.397173
-0.130138
0.13945
0.409074
0.67083
0.898675
-0.884335
-0.652294
-0.3955
-0.129571
0.139055
0.40742
0.667237
0.897131
-0.884812
-0.651785
-0.395257
-0.129717
0.138423
0.406133
0.665368
0.896127
-0.886628
-0.652867
-0.39606
-0.130423
0.137608
0.405031
0.664088
0.895488
-0.890045
-0.654826
-0.397376
-0.131416
0.136636
0.403929
0.663086
0.895063
-0.892664
-0.657465
-0.398634
-0.132367
0.135522
0.402672
0.66269
0.894684
-0.880384
-0.653642
-0.398474
-0.132883
0.134307
0.400417
0.656427
0.882437
-0.894172
-0.66118
-0.400679
-0.132227
0.138364
0.408622
0.671109
0.898403
-0.893514
-0.663251
-0.397892
-0.130527
0.138226
0.40676
0.671858
0.89684
-0.891607
-0.656905
-0.39439
-0.129225
0.137526
0.403391
0.664803
0.894354
-0.890809
-0.655
-0.393091
-0.128948
0.136693
0.40131
0.662018
0.893175
-0.890866
-0.655334
-0.393493
-0.129487
0.135891
0.400271
0.661109
0.892809
-0.891598
-0.657341
-0.395047
-0.13055
0.135098
0.399922
0.661584
0.893055
-0.89285
-0.661674
-0.397134
-0.131775
0.134227
0.399863
0.664236
0.893776
-0.883759
-0.654482
-0.397273
-0.132585
0.133401
0.398313
0.655702
0.884837
-0.893829
-0.659807
-0.400594
-0.132618
0.13752
0.406843
0.667459
0.897014
-0.89238
-0.659393
-0.396708
-0.130687
0.136802
0.403155
0.664797
0.894306
-0.889174
-0.650933
-0.39173
-0.128868
0.135478
0.397885
0.6551
0.890454
-0.887997
-0.647941
-0.389357
-0.128129
0.134285
0.39481
0.65135
0.888957
-0.887985
-0.6479
-0.389404
-0.128491
0.133509
0.39382
0.650638
0.888749
-0.888979
-0.650317
-0.391333
-0.129666
0.13308
0.394409
0.652319
0.889576
-0.891341
-0.65614
-0.39436
-0.131146
0.132835
0.395974
0.657326
0.891696
-0.882337
-0.651089
-0.395613
-0.132182
0.132657
0.396178
0.651622
0.882917
-0.893087
-0.658019
-0.399559
-0.132225
0.137336
0.406026
0.665964
0.896285
-0.891579
-0.657374
-0.395379
-0.13031
0.136231
0.401456
0.662332
0.893269
-0.888083
-0.648354
-0.38989
-0.12839
0.134381
0.395096
0.651562
0.889014
-0.886771
-0.644936
-0.387045
-0.127495
0.13286
0.391374
0.647287
0.887365
-0.886736
-0.644796
-0.386969
-0.127789
0.13208
0.3904
0.64663
0.887194
-0.88783
-0.647495
-0.389183
-0.129026
0.131948
0.391598
0.648889
0.888223
-0.89044
-0.653903
-0.392767
-0.130661
0.132182
0.394144
0.65485
0.890705
-0.881229
-0.649429
-0.394554
-0.131826
0.132349
0.395188
0.650043
0.881911
-0.890653
-0.655616
-0.397819
-0.131185
0.137859
0.406248
0.666041
0.8963
-0.891181
-0.656241
-0.394228
-0.129516
0.136675
0.401661
0.662404
0.893282
-0.887943
-0.64787
-0.389228
-0.127837
0.134724
0.395263
0.65162
0.889024
-0.886692
-0.644635
-0.386576
-0.127055
0.133153
0.391518
0.647336
0.887374
-0.886659
-0.644508
-0.386519
-0.127367
0.132361
0.390539
0.646678
0.887202
-0.887726
-0.647143
-0.388693
-0.128607
0.132214
0.391729
0.648934
0.888231
-0.890243
-0.653391
-0.392223
-0.130273
0.132403
0.394247
0.654885
0.890712
-0.880377
-0.64862
-0.393975
-0.1315
0.132503
0.39525
0.650063
0.881914
-0.887389
-0.653348
-0.395938
-0.129854
0.1389
0.407425
0.66766
0.897053
-0.891249
-0.656255
-0.393579
-0.128574
0.137962
0.403685
0.664981
0.89434
-0.888712
-0.649458
-0.389846
-0.127384
0.136372
0.398315
0.655249
0.89048
-0.887689
-0.646904
-0.387909
-0.126896
0.135065
0.395194
0.651483
0.888981
-0.88766
-0.64682
-0.387912
-0.127228
0.134305
0.394211
0.650773
0.888774
-0.888554
-0.64899
-0.389642
-0.12833
0.133888
0.3948
0.652455
0.889601
-0.890644
-0.65436
-0.392516
-0.129876
0.133538
0.396296
0.657437
0.891717
-0.879659
-0.648481
-0.393727
-0.131115
0.133163
0.396382
0.651688
0.88293
-0.885269
-0.652449
-0.394487
-0.128618
0.14013
0.409349
0.671355
0.898451
-0.891638
-0.658593
-0.393681
-0.127855
0.139621
0.407372
0.672067
0.89688
-0.890573
-0.6542
-0.391609
-0.127312
0.138585
0.403878
0.664971
0.894385
-0.889952
-0.652665
-0.390638
-0.127209
0.137681
0.401773
0.662179
0.893205
-0.889894
-0.652627
-0.390683
-0.127511
0.13701
0.400795
0.661292
0.892844
-0.890374
-0.653977
-0.391668
-0.128249
0.136368
0.400505
0.661787
0.893094
-0.891206
-0.657615
-0.393439
-0.129425
0.135456
0.400404
0.664422
0.893812
-0.879033
-0.649534
-0.393716
-0.130573
0.134354
0.398696
0.655828
0.884862
-0.87161
-0.646761
-0.39302
-0.127731
0.141143
0.410867
0.671444
0.8962
-0.8795
-0.649681
-0.392916
-0.127742
0.140582
0.409527
0.670977
0.898703
-0.879621
-0.647926
-0.392359
-0.127783
0.139909
0.407766
0.66735
0.897151
-0.879925
-0.647503
-0.39216
-0.127916
0.139303
0.406498
0.665491
0.89615
-0.88035
-0.64754
-0.392183
-0.12813
0.138745
0.405509
0.664252
0.895521
-0.880968
-0.648041
-0.392451
-0.128501
0.138082
0.404536
0.663295
0.895104
-0.881723
-0.649628
-0.393045
-0.12911
0.137114
0.403327
0.662912
0.894728
-0.869676
-0.6456
-0.393101
-0.129878
0.135718
0.400975
0.656611
0.882479
)
;

boundaryField
{
    my_cube_faces
    {
        type            calculated;
        value           nonuniform 0();
    }
    outlet
    {
        type            calculated;
        value           nonuniform List<scalar> 
111
(
0.983208
0.985892
0.98558
0.999999
0.132504
0.395595
0.64502
0.985173
0.999999
0.999999
-0.132036
0.132623
0.395635
0.645031
0.985174
0.867051
0.999999
0.999999
0.999999
-0.131678
0.133108
0.396432
0.646177
0.985581
0.868173
0.999999
0.999999
0.999999
-0.131168
0.133952
0.397873
0.647986
0.985894
0.869785
0.999999
0.999999
0.999999
-0.130369
0.135083
0.399891
0.651952
0.983215
0.867157
-0.877901
-0.655006
-0.400173
-0.131775
0.139413
0.410504
0.670131
0.893563
-0.983415
-0.986588
-0.987241
-0.988474
-0.990644
-0.995934
-0.981768
-0.889112
0.667081
0.895347
-0.984922
-0.889111
0.665732
0.894437
-0.984943
-0.888111
0.407544
0.6647
0.893749
-0.984422
-0.882825
0.138187
0.407762
0.664774
0.893766
-0.996411
-0.983607
-0.396853
-0.130529
0.13914
0.408642
0.665926
0.894481
-0.991446
-0.98243
-0.645386
-0.394754
-0.129157
0.140176
0.409801
0.66733
0.895404
-0.988676
-0.980704
-0.861749
-0.644232
-0.393202
-0.127889
0.141235
0.411221
0.670366
0.893619
-0.970901
-0.981268
-0.982649
-0.983546
-0.984238
-0.984836
-0.98501
-0.968742
)
;
    }
    defaultName
    {
        type            calculated;
        value           nonuniform List<scalar> 
32
(
0.894081
0.894896
0.894101
0.893216
0.892339
0.891333
0.890094
-0.858861
-0.642579
-0.392872
-0.129584
0.136431
0.402143
0.655927
0.878221
0.894048
0.894879
0.894087
0.893197
0.892308
-0.881423
0.89129
-0.886311
0.890045
-0.875136
-0.652062
-0.399055
-0.133032
0.134818
0.401511
0.655719
0.878168
)
;
    }
    inlet
    {
        type            calculated;
        value           nonuniform 0();
    }
    outlet_patch0
    {
        type            calculated;
        value           nonuniform List<scalar> 
145
(
1
1
1
1
1
1
1
-0.864534
-0.650041
-0.398327
-0.133101
0.133841
0.399417
0.651801
0.867116
1
1
1
1
1
1
1
-0.868277
-0.647114
-0.39719
-0.132947
0.133174
0.397588
0.647899
0.869765
1
1
1
1
1
1
1
-0.867242
-0.645705
-0.396115
-0.132628
0.132706
0.396291
0.646136
0.868165
1
1
1
1
1
1
-0.86589
-0.644364
-0.395266
-0.132325
0.867049
1
1
1
1
1
-0.864469
-0.643371
-0.394682
0.999999
1
1
1
-0.862825
-0.642569
-0.394232
0.999999
1
1
1
-0.860751
-0.641609
-0.393779
1
1
1
1
-0.854363
-0.64223
-0.393291
-1
-0.656215
-0.40174
-0.133097
0.138308
0.409059
-1
-1
-1
-1
-1
-1
-1
-0.656733
-0.402118
-0.13352
0.13771
0.408069
-1
-1
-1
-1
-1
-1
-1
-0.655176
-0.401201
-0.133119
0.137646
-1
-1
-1
-1
-1
-1
-1
-0.65215
-0.399224
-0.131991
-1
-1
-1
-1
-1
-1
-0.875758
-0.648637
-1
-1
-1
-1
-1
-1
-0.871466
-1
-1
-1
-1
-1
-1
)
;
    }
    defaultName_patch0
    {
        type            calculated;
        value           nonuniform List<scalar> 
96
(
-0.855747
-0.642781
-0.392682
-0.127681
0.141303
0.411154
0.669655
-0.861468
-0.641562
-0.392709
-0.128062
0.140732
0.410029
0.666754
-0.862912
-0.642045
-0.392833
-0.128296
0.14022
0.409055
0.665583
-0.863901
-0.642212
-0.39289
-0.12848
0.13973
0.40807
0.664097
-0.864625
-0.64221
-0.392867
-0.128638
0.139231
0.407069
0.662572
-0.865236
-0.642105
-0.39283
-0.12886
0.138585
0.405842
0.660752
-0.865582
-0.641764
-0.392831
-0.129199
0.137693
0.40423
0.658189
-0.867373
-0.651625
-0.398317
-0.130714
0.139929
0.410631
0.669492
-0.870811
-0.648216
-0.396779
-0.13016
0.139824
0.409702
0.666659
-0.870678
-0.64728
-0.395984
-0.129904
0.139533
0.408811
0.665512
-0.871956
-0.647419
-0.396109
-0.130184
0.138973
0.40779
0.664009
-0.874927
-0.648754
-0.397047
-0.130939
0.138168
0.406658
0.662438
-0.650509
-0.398266
-0.131903
0.137155
0.40528
0.660565
-0.651462
-0.399101
-0.132716
0.136036
0.403578
0.657973
)
;
    }
    inlet_patch0
    {
        type            calculated;
        value           nonuniform 0();
    }
}


// ************************************************************************* //
