/*--------------------------------*- C++ -*----------------------------------*\
| =========                 |                                                 |
| \\      /  F ield         | OpenFOAM: The Open Source CFD Toolbox           |
|  \\    /   O peration     | Version:  2.1                                   |
|   \\  /    A nd           | Web:      www.OpenFOAM.org                      |
|    \\/     M anipulation  |                                                 |
\*---------------------------------------------------------------------------*/
/*   Windows 32 and 64 bit porting by blueCAPE: http://www.bluecape.com.pt   *\
|  Based on Windows porting (2.0.x v4) by Symscape: http://www.symscape.com   |
\*---------------------------------------------------------------------------*/
FoamFile
{
    version     2.0;
    format      ascii;
    class       volScalarField;
    location    "1";
    object      ccy;
}
// * * * * * * * * * * * * * * * * * * * * * * * * * * * * * * * * * * * * * //

dimensions      [0 1 0 0 0 0 0];

internalField   nonuniform List<scalar> 
512
(
-0.870438
-0.87917
-0.879529
-0.879956
-0.880437
-0.881046
-0.881753
-0.869637
-0.64586
-0.649338
-0.647859
-0.647521
-0.647554
-0.647978
-0.649436
-0.645289
-0.392382
-0.39265
-0.39228
-0.392106
-0.392032
-0.392077
-0.392342
-0.392055
-0.127255
-0.127548
-0.127687
-0.127746
-0.127686
-0.127523
-0.127343
-0.127189
0.141494
0.140711
0.14002
0.139631
0.139656
0.140088
0.140765
0.141394
0.411004
0.409624
0.407916
0.407036
0.407044
0.407938
0.409615
0.410951
0.671173
0.671335
0.667741
0.666295
0.666322
0.667821
0.671436
0.671448
0.895876
0.898538
0.897119
0.896384
0.896376
0.897085
0.898463
0.896192
-0.883354
-0.891368
-0.890534
-0.889931
-0.889865
-0.89032
-0.891117
-0.87889
-0.650856
-0.657934
-0.654002
-0.652543
-0.652464
-0.653702
-0.657203
-0.649068
-0.393444
-0.393014
-0.391262
-0.390336
-0.390221
-0.390882
-0.392276
-0.3924
-0.128059
-0.127391
-0.126937
-0.126716
-0.126614
-0.126621
-0.126865
-0.127423
0.140339
0.139893
0.138941
0.138349
0.138413
0.139137
0.140214
0.140756
0.409334
0.407504
0.404193
0.402523
0.402552
0.404285
0.407687
0.409606
0.670902
0.672103
0.665197
0.662764
0.66277
0.665192
0.672184
0.671031
0.898578
0.896892
0.894406
0.893375
0.893368
0.894365
0.896915
0.898728
-0.884477
-0.890839
-0.88864
-0.887633
-0.887587
-0.888447
-0.890488
-0.879347
-0.650889
-0.655194
-0.649085
-0.646631
-0.646481
-0.648498
-0.653713
-0.647805
-0.394239
-0.392438
-0.389176
-0.387313
-0.387088
-0.388399
-0.390915
-0.392156
-0.128845
-0.127741
-0.126674
-0.126024
-0.125813
-0.126006
-0.126648
-0.127612
0.139388
0.138469
0.136994
0.136085
0.136233
0.137442
0.139142
0.140078
0.407579
0.403932
0.398776
0.396123
0.396201
0.399015
0.404307
0.40794
0.667387
0.665049
0.6555
0.652027
0.652048
0.655541
0.665207
0.667586
0.897129
0.894419
0.890555
0.889128
0.889127
0.890523
0.894493
0.897276
-0.886685
-0.890687
-0.887844
-0.886608
-0.886548
-0.887562
-0.889984
-0.87965
-0.652612
-0.654919
-0.647363
-0.644233
-0.644005
-0.646433
-0.652449
-0.647541
-0.395712
-0.39278
-0.38832
-0.385726
-0.385367
-0.387045
-0.39022
-0.39208
-0.129906
-0.128432
-0.126876
-0.125874
-0.125518
-0.12576
-0.126605
-0.127736
0.138509
0.137352
0.135539
0.134438
0.134694
0.136284
0.138445
0.139666
0.40651
0.402017
0.395844
0.392602
0.392739
0.39624
0.402585
0.407064
0.665971
0.66255
0.651929
0.647924
0.647965
0.652025
0.662768
0.666236
0.896373
0.893368
0.889117
0.887524
0.887527
0.889095
0.893469
0.896543
-0.890252
-0.891085
-0.887969
-0.886648
-0.886563
-0.887568
-0.889986
-0.879646
-0.655036
-0.656033
-0.647774
-0.644386
-0.644062
-0.646454
-0.652453
-0.647539
-0.397462
-0.393893
-0.38886
-0.385961
-0.385461
-0.387077
-0.390226
-0.39208
-0.130942
-0.129184
-0.12731
-0.126088
-0.125609
-0.125792
-0.126612
-0.127737
0.138
0.136945
0.135281
0.134302
0.134634
0.136263
0.138439
0.139666
0.406316
0.401845
0.395724
0.39254
0.392713
0.396232
0.402583
0.407064
0.666007
0.66251
0.651891
0.647907
0.647959
0.652025
0.66277
0.666237
0.896345
0.893343
0.889109
0.887523
0.887528
0.889096
0.89347
0.896543
-0.892877
-0.891957
-0.889022
-0.887771
-0.88764
-0.888466
-0.890494
-0.879335
-0.657402
-0.658249
-0.650271
-0.647094
-0.646656
-0.648556
-0.653723
-0.647798
-0.398913
-0.395428
-0.390641
-0.387953
-0.387343
-0.388483
-0.39093
-0.392155
-0.13159
-0.12972
-0.127793
-0.126563
-0.126039
-0.126082
-0.126665
-0.127613
0.138053
0.137417
0.136342
0.135749
0.136088
0.137392
0.13913
0.140077
0.407081
0.403494
0.398478
0.395972
0.396138
0.398997
0.404304
0.40794
0.667525
0.664955
0.655412
0.651992
0.652041
0.655546
0.665212
0.667588
0.897053
0.894361
0.890546
0.889133
0.889133
0.890528
0.894497
0.897278
-0.893558
-0.89316
-0.891308
-0.890259
-0.889986
-0.890353
-0.89112
-0.878867
-0.659618
-0.662345
-0.655955
-0.653376
-0.652768
-0.653779
-0.657202
-0.649051
-0.399608
-0.396951
-0.393238
-0.391214
-0.390552
-0.390971
-0.392282
-0.392391
-0.131588
-0.129858
-0.128278
-0.127339
-0.126857
-0.126691
-0.126873
-0.12742
0.138684
0.138629
0.138208
0.137996
0.138273
0.139097
0.140208
0.140757
0.408755
0.40697
0.403849
0.402356
0.402491
0.404273
0.407689
0.409608
0.67114
0.671945
0.665057
0.662706
0.66276
0.665201
0.672194
0.671036
0.898416
0.896867
0.894438
0.893411
0.893394
0.89438
0.896923
0.898732
-0.881789
-0.884507
-0.882606
-0.881374
-0.8809
-0.8811
-0.881698
-0.869573
-0.655077
-0.654838
-0.650776
-0.648827
-0.647985
-0.64804
-0.649397
-0.645246
-0.398584
-0.396569
-0.394342
-0.39301
-0.392323
-0.392116
-0.392314
-0.39203
-0.130839
-0.12978
-0.128843
-0.128243
-0.127841
-0.12754
-0.127326
-0.127177
0.139671
0.139621
0.139471
0.139402
0.13959
0.140085
0.140776
0.1414
0.41026
0.409127
0.407667
0.406938
0.407023
0.407946
0.409626
0.410956
0.671199
0.670806
0.66739
0.666135
0.666277
0.667822
0.671447
0.671455
0.89614
0.89866
0.897186
0.896439
0.896415
0.897108
0.898475
0.896198
)
;

boundaryField
{
    my_cube_faces
    {
        type            calculated;
        value           nonuniform 0();
    }
    outlet
    {
        type            calculated;
        value           nonuniform List<scalar> 
111
(
0.894043
0.894858
0.894154
-0.863339
1
1
1
0.893635
-0.863331
-0.642268
1
0.999999
0.999999
0.999999
0.893635
0.999999
-0.862358
-0.641929
-0.392814
1
0.999999
0.999999
0.999999
0.894154
0.999999
-0.860529
-0.641151
-0.39251
1
0.999999
0.999999
0.999999
0.894858
0.999999
-0.854213
-0.641846
-0.392133
1
0.999999
0.999999
0.999999
0.894045
0.999999
-0.969646
-0.980939
-0.982507
-0.983559
-0.984335
-0.984951
-0.9851
-0.968758
-0.860045
-0.643093
-0.392395
-0.127332
0.14162
0.410132
0.894133
-0.986718
-1
-0.980633
0.894953
-0.988495
-1
-0.982207
0.894184
-0.99092
-1
-1
-0.982984
0.893633
-0.996157
-1
-1
-1
-0.982978
-0.882224
0.893711
-1
-1
-1
-1
-1
-0.982189
-0.887411
0.894434
-1
-1
-1
-1
-1
-1
-0.980605
-0.888046
0.895345
-0.982947
-0.985756
-0.985446
-0.984952
-0.984795
-0.985002
-0.985041
-0.968687
-0.877122
-0.654076
-0.399609
-0.131476
0.139539
0.410538
0.670106
0.893547
)
;
    }
    defaultName
    {
        type            calculated;
        value           nonuniform List<scalar> 
32
(
-0.858773
-0.642286
-0.391957
-0.127209
0.14154
0.411327
0.670374
0.893999
0.894823
0.894133
0.893658
0.893776
0.894513
0.895421
0.89361
-0.858863
-0.642343
-0.391993
-0.127229
0.14153
0.41248
0.411319
0.670104
0.670365
0.893243
0.89522
0.89439
0.893774
0.893809
0.894512
0.895413
0.893604
)
;
    }
    inlet
    {
        type            calculated;
        value           nonuniform 0();
    }
    outlet_patch0
    {
        type            calculated;
        value           nonuniform List<scalar> 
145
(
-0.85427
-0.641877
-0.39215
-0.127407
0.141412
0.411165
0.669604
1
1
1
1
1
1
1
1
-0.860567
-0.641166
-0.392516
-0.127973
0.140756
0.41001
0.666696
1
1
1
1
1
1
1
1
-0.86238
-0.641937
-0.392817
-0.128285
0.140253
0.409127
0.665686
1
1
1
1
1
1
1
1
-0.64227
-0.392985
-0.128462
0.139937
0.408545
0.664835
1
1
1
1
1
-0.392984
-0.128463
0.139937
0.408545
0.664835
1
1
1
-0.128284
0.140253
0.409127
0.665687
1
1
1
-0.127971
0.140758
0.410012
0.666698
1
1
1
-0.127399
0.141416
0.411169
0.669607
1
1
1
0.669727
-1
-1
-1
-1
-1
-0.868312
-0.643389
-0.393489
-0.128494
0.140441
0.409827
0.666767
-1
-1
-1
-1
-1
-0.871027
-0.645636
-0.394899
-0.129438
0.139648
0.408819
0.665641
-1
-1
-1
-1
-0.875069
-0.648487
-0.396824
-0.130632
0.138837
0.408022
0.664696
-1
-1
-1
-0.651557
-0.398832
-0.13177
0.138296
0.407815
0.66473
-1
-1
-0.653858
-0.400253
-0.132462
0.138218
0.408282
0.665785
-1
-0.654387
-0.400578
-0.132447
0.138613
0.409181
0.667109
)
;
    }
    defaultName_patch0
    {
        type            calculated;
        value           nonuniform List<scalar> 
96
(
-0.866558
-0.869505
-0.867835
-0.866334
-0.865566
-0.865491
-0.865594
-0.651108
-0.647449
-0.645525
-0.643869
-0.642801
-0.642187
-0.641616
-0.398031
-0.396331
-0.394876
-0.39379
-0.39308
-0.392626
-0.392297
-0.130585
-0.129943
-0.129303
-0.128831
-0.128468
-0.128132
-0.127783
0.139962
0.139889
0.13981
0.139763
0.139906
0.140292
0.140822
0.410605
0.409677
0.408942
0.408443
0.408492
0.409124
0.410061
0.669415
0.666576
0.665615
0.664832
0.664975
0.666085
0.667413
-0.854928
-0.861014
-0.862756
-0.863961
-0.864791
-0.865404
-0.865689
-0.642264
-0.64139
-0.642045
-0.642295
-0.642303
-0.642135
-0.641678
-0.392318
-0.392637
-0.392862
-0.392932
-0.392839
-0.392623
-0.392345
-0.127407
-0.128028
-0.128316
-0.128437
-0.128376
-0.128147
-0.127815
0.141503
0.140731
0.140208
0.139906
0.139926
0.140273
0.140803
0.410016
0.409073
0.408472
0.408477
0.409101
0.410045
0.667149
0.665922
0.664957
0.665001
0.666075
0.667398
)
;
    }
    inlet_patch0
    {
        type            calculated;
        value           nonuniform 0();
    }
}


// ************************************************************************* //
