/*--------------------------------*- C++ -*----------------------------------*\
| =========                 |                                                 |
| \\      /  F ield         | OpenFOAM: The Open Source CFD Toolbox           |
|  \\    /   O peration     | Version:  2.1                                   |
|   \\  /    A nd           | Web:      www.OpenFOAM.org                      |
|    \\/     M anipulation  |                                                 |
\*---------------------------------------------------------------------------*/
/*   Windows 32 and 64 bit porting by blueCAPE: http://www.bluecape.com.pt   *\
|  Based on Windows porting (2.0.x v4) by Symscape: http://www.symscape.com   |
\*---------------------------------------------------------------------------*/
FoamFile
{
    version     2.0;
    format      ascii;
    class       volScalarField;
    location    "1";
    object      ccz;
}
// * * * * * * * * * * * * * * * * * * * * * * * * * * * * * * * * * * * * * //

dimensions      [0 1 0 0 0 0 0];

internalField   nonuniform List<scalar> 
512
(
-0.895969
-0.898332
-0.896893
-0.895923
-0.895332
-0.894957
-0.894621
-0.882373
-0.898364
-0.89661
-0.89407
-0.892944
-0.892623
-0.8929
-0.893685
-0.884722
-0.896515
-0.893931
-0.890073
-0.888657
-0.888484
-0.889315
-0.891518
-0.882679
-0.894986
-0.892563
-0.888552
-0.887062
-0.886937
-0.887943
-0.890431
-0.881434
-0.893634
-0.89192
-0.888268
-0.886881
-0.886784
-0.88778
-0.890156
-0.880984
-0.891257
-0.891844
-0.88896
-0.887833
-0.887762
-0.888598
-0.890526
-0.881218
-0.888266
-0.892163
-0.890878
-0.890203
-0.890151
-0.89062
-0.891275
-0.881827
-0.873781
-0.880245
-0.880026
-0.879961
-0.879794
-0.879429
-0.878977
-0.8697
-0.670571
-0.67074
-0.667023
-0.664984
-0.663681
-0.662767
-0.662494
-0.656332
-0.669821
-0.67102
-0.664003
-0.661258
-0.660437
-0.661038
-0.66389
-0.655573
-0.665429
-0.663391
-0.653963
-0.650407
-0.649834
-0.65163
-0.656819
-0.651344
-0.662231
-0.659982
-0.650007
-0.64614
-0.645685
-0.648038
-0.654084
-0.649377
-0.659206
-0.658309
-0.649058
-0.645453
-0.645098
-0.647479
-0.653459
-0.648574
-0.656508
-0.658032
-0.650465
-0.647624
-0.64738
-0.649344
-0.654489
-0.648682
-0.655031
-0.660087
-0.655131
-0.653394
-0.653247
-0.654441
-0.657889
-0.650029
-0.64862
-0.650876
-0.648811
-0.648225
-0.648112
-0.648342
-0.649626
-0.645824
-0.408812
-0.407753
-0.405969
-0.404728
-0.403841
-0.40306
-0.40216
-0.400191
-0.407312
-0.405175
-0.4017
-0.399703
-0.398917
-0.398937
-0.399312
-0.398084
-0.405027
-0.401092
-0.395879
-0.393027
-0.392357
-0.393341
-0.395334
-0.395838
-0.402847
-0.398367
-0.392456
-0.389201
-0.388646
-0.390265
-0.393218
-0.394538
-0.400656
-0.396705
-0.391264
-0.388268
-0.387855
-0.38957
-0.392594
-0.39393
-0.398578
-0.395905
-0.391814
-0.389635
-0.389388
-0.390725
-0.393087
-0.393829
-0.396888
-0.39584
-0.393554
-0.392446
-0.392342
-0.393043
-0.394348
-0.394104
-0.395073
-0.394707
-0.394016
-0.393765
-0.393739
-0.39386
-0.394168
-0.393813
-0.136492
-0.136409
-0.135839
-0.135425
-0.135118
-0.134829
-0.134445
-0.133837
-0.136076
-0.135312
-0.134346
-0.133705
-0.133414
-0.133343
-0.133288
-0.13309
-0.135285
-0.133932
-0.132422
-0.131496
-0.131259
-0.131546
-0.132053
-0.132401
-0.134314
-0.132769
-0.131007
-0.129962
-0.129815
-0.130396
-0.131321
-0.131971
-0.133231
-0.131871
-0.130325
-0.129442
-0.129408
-0.130077
-0.131071
-0.131758
-0.132185
-0.131281
-0.130316
-0.129817
-0.129885
-0.130428
-0.131181
-0.131703
-0.131379
-0.131073
-0.130798
-0.130727
-0.13085
-0.131135
-0.131503
-0.131732
-0.130973
-0.131169
-0.131349
-0.13151
-0.131628
-0.131715
-0.131778
-0.131734
0.136816
0.136237
0.135842
0.13549
0.135201
0.134899
0.134484
0.133847
0.136494
0.135585
0.134544
0.133862
0.133535
0.133421
0.133322
0.133095
0.136122
0.134779
0.133045
0.131875
0.131473
0.13165
0.132088
0.132405
0.136033
0.134389
0.132186
0.130653
0.130164
0.130544
0.131367
0.131976
0.136128
0.1344
0.132069
0.13043
0.12989
0.130274
0.131129
0.131766
0.1362
0.134561
0.132421
0.130957
0.130433
0.130651
0.131246
0.131711
0.13598
0.134498
0.13283
0.131775
0.131332
0.131325
0.131557
0.131738
0.135202
0.134035
0.132962
0.132284
0.131944
0.131821
0.131804
0.131736
0.408694
0.407595
0.405968
0.404808
0.40395
0.403153
0.402214
0.400209
0.407783
0.405459
0.401873
0.399843
0.399035
0.39902
0.399352
0.398092
0.406078
0.401981
0.396432
0.393347
0.39254
0.393435
0.395368
0.395842
0.405006
0.400082
0.393494
0.389757
0.388928
0.39039
0.393257
0.394541
0.404304
0.399428
0.392839
0.389075
0.388243
0.389733
0.392643
0.393934
0.403674
0.399545
0.393839
0.390643
0.389858
0.390916
0.393143
0.393834
0.402826
0.399897
0.395774
0.39354
0.392832
0.393232
0.394401
0.394108
0.400762
0.39852
0.396162
0.394804
0.394163
0.394002
0.394201
0.393813
0.670484
0.670253
0.66675
0.664946
0.663768
0.662873
0.662567
0.656363
0.670681
0.671251
0.664101
0.661354
0.660534
0.661115
0.663932
0.655582
0.666999
0.664134
0.654302
0.650595
0.649947
0.651696
0.656846
0.651344
0.665089
0.661425
0.650636
0.646439
0.645836
0.648112
0.654109
0.649374
0.663885
0.660655
0.65005
0.645895
0.645305
0.647573
0.653487
0.64857
0.66303
0.661297
0.65186
0.648241
0.647656
0.64946
0.654522
0.648678
0.662768
0.664148
0.657051
0.654296
0.653636
0.654587
0.657927
0.650026
0.656572
0.655793
0.651559
0.649572
0.648662
0.64852
0.649663
0.64582
0.895879
0.898504
0.897013
0.896037
0.89543
0.895024
0.894658
0.882392
0.898323
0.896686
0.89417
0.893027
0.892685
0.892939
0.893705
0.884726
0.896877
0.8941
0.890168
0.888716
0.888523
0.889339
0.891529
0.882674
0.89595
0.892983
0.888714
0.887137
0.886978
0.887966
0.890441
0.881424
0.895386
0.892675
0.888536
0.886991
0.886837
0.887807
0.890167
0.880971
0.895025
0.892962
0.889374
0.888005
0.88784
0.888634
0.89054
0.881204
0.894693
0.893755
0.891598
0.890538
0.890296
0.890675
0.891291
0.881813
0.882487
0.884854
0.882788
0.881352
0.880362
0.879606
0.879009
0.869687
)
;

boundaryField
{
    my_cube_faces
    {
        type            calculated;
        value           nonuniform 0();
    }
    outlet
    {
        type            calculated;
        value           nonuniform List<scalar> 
111
(
-0.858902
-0.642826
-0.393698
-0.133606
-0.132031
-0.132045
-0.131997
-0.13175
0.133611
0.133088
0.13254
0.132251
0.132104
0.132006
0.131748
0.131831
0.399315
0.397496
0.396084
0.39533
0.394722
0.394354
0.394065
0.393694
0.393832
0.651742
0.647778
0.645803
0.644423
0.643343
0.642554
0.641658
0.642815
0.642372
0.867054
0.869607
0.867801
0.866088
0.864433
0.862733
0.860682
0.858879
0.85434
-0.893387
-0.895229
-0.894233
-0.893149
-0.89218
-0.89117
-0.889967
-0.878109
-0.89382
-0.894411
-0.89303
-0.891119
-0.888874
-0.883343
-0.864865
-0.669605
-0.657757
-0.655605
-0.646484
-0.409308
-0.403111
-0.40127
-0.395374
-0.136689
-0.135422
-0.134952
-0.134244
-0.130958
0.135795
0.135857
0.135491
0.134994
0.134261
0.138099
0.135801
0.407502
0.406624
0.405725
0.404621
0.403174
0.401297
0.409091
0.401902
0.666121
0.66503
0.663597
0.662123
0.660353
0.657848
0.655648
0.669393
0.655855
0.893869
0.894734
0.89396
0.893093
0.892235
0.891245
0.890021
0.878141
0.893214
0.895108
0.894173
0.893163
0.892245
0.891253
0.890049
0.878221
)
;
    }
    defaultName
    {
        type            calculated;
        value           nonuniform List<scalar> 
32
(
0.98317
0.985801
0.985406
0.984879
0.984727
0.984954
0.985016
0.983243
0.985899
0.985439
0.984584
0.983599
0.98237
0.980647
0.968701
-0.983164
-0.985805
-0.985417
-0.984897
-0.984748
-0.996699
-0.984977
-0.991738
-0.985037
-0.973139
-0.981802
-0.982849
-0.983247
-0.983048
-0.982199
-0.980618
-0.968718
)
;
    }
    inlet
    {
        type            calculated;
        value           nonuniform 0();
    }
    outlet_patch0
    {
        type            calculated;
        value           nonuniform List<scalar> 
145
(
-0.867042
-0.869612
-0.867818
-0.866297
-0.865563
-0.865537
-0.865682
-0.857356
-0.862465
-0.863393
-0.863774
-0.863492
-0.862445
-0.860631
-0.854351
-0.651731
-0.647782
-0.645812
-0.644186
-0.643173
-0.642618
-0.6421
-0.644261
-0.642554
-0.642771
-0.642815
-0.642704
-0.642361
-0.641623
-0.642377
-0.399308
-0.397498
-0.396088
-0.395074
-0.394447
-0.394092
-0.393876
-0.394508
-0.394264
-0.394297
-0.394358
-0.394353
-0.394248
-0.394047
-0.393834
-0.133089
-0.132624
-0.132294
-0.132091
-0.131977
-0.131902
-0.130999
-0.131395
-0.131708
-0.131927
-0.131833
0.132622
0.132292
0.13209
0.131976
0.131901
0.13481
0.13386
0.13307
0.395069
0.394443
0.394088
0.393872
0.399798
0.397839
0.396354
0.644175
0.643162
0.642606
0.64209
0.651941
0.647974
0.646029
0.866272
0.865533
0.865506
0.865653
0.867193
0.869789
0.867945
-0.876346
-0.666774
-0.6653
-0.663598
-0.661997
-0.660217
-0.668826
-0.665604
-0.663497
-0.660319
-0.656518
-0.652465
-0.648514
-0.408446
-0.407462
-0.406513
-0.405596
-0.404517
-0.409186
-0.40805
-0.406567
-0.404555
-0.402143
-0.399565
-0.397202
-0.136741
-0.136386
-0.136075
-0.135776
-0.13673
-0.136507
-0.135908
-0.134992
-0.133847
-0.132646
-0.131642
0.136624
0.136408
0.136141
0.13676
0.136603
0.13662
0.13674
0.136782
0.136544
0.409106
0.408321
0.408388
0.407517
0.406739
0.406009
0.40509
0.403766
0.668875
0.666594
0.665233
0.66367
0.662181
0.660465
0.658021
)
;
    }
    defaultName_patch0
    {
        type            calculated;
        value           nonuniform List<scalar> 
96
(
1
1
1
1
1
1
1
1
1
1
1
1
1
1
1
1
1
1
1
1
1
1
1
1
1
1
1
1
1
1
1
1
1
1
1
1
1
1
1
1
1
1
1
1
1
1
1
1
1
-1
-1
-1
-1
-1
-1
-1
-1
-1
-1
-1
-1
-1
-1
-1
-1
-1
-1
-1
-1
-1
-1
-1
-1
-1
-1
-1
-1
-1
-1
-1
-1
-1
-1
-1
-1
-1
-1
-1
-1
-1
-1
-1
-1
-1
-1
-1
)
;
    }
    inlet_patch0
    {
        type            calculated;
        value           nonuniform 0();
    }
}


// ************************************************************************* //
