/*--------------------------------*- C++ -*----------------------------------*\
| =========                 |                                                 |
| \\      /  F ield         | OpenFOAM: The Open Source CFD Toolbox           |
|  \\    /   O peration     | Version:  2.1                                   |
|   \\  /    A nd           | Web:      www.OpenFOAM.org                      |
|    \\/     M anipulation  |                                                 |
\*---------------------------------------------------------------------------*/
/*   Windows 32 and 64 bit porting by blueCAPE: http://www.bluecape.com.pt   *\
|  Based on Windows porting (2.0.x v4) by Symscape: http://www.symscape.com   |
\*---------------------------------------------------------------------------*/
FoamFile
{
    version     2.0;
    format      ascii;
    class       volScalarField;
    location    "1";
    object      cellLevel;
}
// * * * * * * * * * * * * * * * * * * * * * * * * * * * * * * * * * * * * * //

dimensions      [0 0 0 0 0 0 0];

internalField   uniform 0;

boundaryField
{
    my_cube_faces
    {
        type            zeroGradient;
    }
    outlet
    {
        type            zeroGradient;
    }
    defaultName
    {
        type            zeroGradient;
    }
    inlet
    {
        type            zeroGradient;
    }
    outlet_patch0
    {
        type            zeroGradient;
    }
    defaultName_patch0
    {
        type            zeroGradient;
    }
    inlet_patch0
    {
        type            zeroGradient;
    }
}


// ************************************************************************* //
