/*--------------------------------*- C++ -*----------------------------------*\
| =========                 |                                                 |
| \\      /  F ield         | OpenFOAM: The Open Source CFD Toolbox           |
|  \\    /   O peration     | Version:  2.1                                   |
|   \\  /    A nd           | Web:      www.OpenFOAM.org                      |
|    \\/     M anipulation  |                                                 |
\*---------------------------------------------------------------------------*/
/*   Windows 32 and 64 bit porting by blueCAPE: http://www.bluecape.com.pt   *\
|  Based on Windows porting (2.0.x v4) by Symscape: http://www.symscape.com   |
\*---------------------------------------------------------------------------*/
FoamFile
{
    version     2.0;
    format      ascii;
    class       volScalarField;
    location    "2";
    object      ccx;
}
// * * * * * * * * * * * * * * * * * * * * * * * * * * * * * * * * * * * * * //

dimensions      [0 1 0 0 0 0 0];

internalField   nonuniform List<scalar> 
512
(
-0.871529
-0.628054
-0.388427
-0.129611
0.131688
0.369128
0.602242
0.858718
-0.898103
-0.650116
-0.393578
-0.129351
0.137388
0.395736
0.634594
0.862808
-0.897064
-0.64706
-0.392116
-0.128983
0.136938
0.394291
0.631425
0.86201
-0.896412
-0.644852
-0.391164
-0.129083
0.136334
0.39312
0.630026
0.861864
-0.888087
-0.637547
-0.390035
-0.129602
0.135532
0.392067
0.628948
0.861194
-0.880567
-0.627249
-0.389285
-0.130407
0.134632
0.391634
0.628405
0.858266
-0.849289
-0.623747
-0.38955
-0.131213
0.133935
0.392295
0.630884
0.861644
-0.867427
-0.624015
-0.388043
-0.131236
0.132077
0.389982
0.628455
0.872709
-0.85702
-0.628698
-0.390308
-0.132603
0.126638
0.36504
0.633853
0.899419
-0.894065
-0.667551
-0.399352
-0.131093
0.138126
0.40782
0.678898
0.902005
-0.890657
-0.662844
-0.397238
-0.130295
0.137782
0.406243
0.675705
0.902369
-0.889675
-0.661708
-0.396549
-0.130208
0.137252
0.405089
0.674445
0.902798
-0.888574
-0.661769
-0.396787
-0.130682
0.136498
0.404038
0.67332
0.902081
-0.889176
-0.66218
-0.397475
-0.131499
0.13547
0.402711
0.671196
0.898149
-0.887381
-0.663875
-0.398293
-0.132341
0.13429
0.401141
0.668904
0.895272
-0.894379
-0.648286
-0.39466
-0.134675
0.129378
0.394532
0.652603
0.899328
-0.8532
-0.623063
-0.389593
-0.136334
0.115965
0.354028
0.62758
0.888805
-0.895047
-0.667423
-0.399374
-0.131475
0.137209
0.405891
0.671634
0.893785
-0.893636
-0.663067
-0.397409
-0.130647
0.136704
0.4036
0.66836
0.896821
-0.893938
-0.661914
-0.39651
-0.13039
0.136185
0.402404
0.667585
0.898457
-0.893959
-0.661545
-0.39635
-0.130648
0.135548
0.401588
0.666997
0.89843
-0.891196
-0.660695
-0.396446
-0.131276
0.134603
0.40037
0.665212
0.894801
-0.889633
-0.660897
-0.396784
-0.132136
0.133515
0.398819
0.663493
0.892275
-0.894494
-0.646573
-0.397394
-0.146626
0.116214
0.393074
0.658485
0.903482
-0.850959
-0.622553
-0.393472
-0.147191
0.0984403
0.360863
0.631872
0.899701
-0.894677
-0.665892
-0.3987
-0.131517
0.136716
0.40415
0.666786
0.887435
-0.89605
-0.663296
-0.39727
-0.130802
0.13582
0.401081
0.663005
0.890183
-0.89708
-0.662651
-0.396565
-0.130589
0.135243
0.400088
0.663667
0.895511
-0.896622
-0.66205
-0.396256
-0.130708
0.134823
0.399852
0.664263
0.897011
-0.892928
-0.660563
-0.396025
-0.13111
0.134169
0.399191
0.663274
0.894038
-0.890953
-0.659945
-0.396171
-0.131797
0.133373
0.398112
0.662092
0.892203
-0.894562
-0.647541
-0.407923
-0.168028
0.11233
0.393844
0.657305
0.908026
-0.885798
-0.641168
-0.406742
-0.155464
0.10056
0.37904
0.664771
0.90063
-0.893115
-0.663222
-0.397359
-0.130708
0.137248
0.403691
0.665056
0.900265
-0.894978
-0.662129
-0.396415
-0.130302
0.135805
0.3998
0.658966
0.884148
-0.89673
-0.662039
-0.395973
-0.130216
0.135133
0.398976
0.660657
0.890386
-0.896335
-0.661544
-0.395725
-0.130299
0.13492
0.399474
0.663307
0.895835
-0.892567
-0.660032
-0.395518
-0.130613
0.134517
0.399408
0.663253
0.893857
-0.890943
-0.659367
-0.395784
-0.131097
0.133885
0.398756
0.662685
0.892481
-0.893861
-0.649736
-0.423282
-0.17825
0.106507
0.396755
0.670057
0.907857
-0.896684
-0.668794
-0.408817
-0.149405
0.113222
0.408095
0.668885
0.897244
-0.885706
-0.661127
-0.395771
-0.129431
0.138101
0.404986
0.667491
0.903734
-0.890601
-0.659976
-0.395073
-0.129313
0.136753
0.400995
0.659812
0.90244
-0.892776
-0.65997
-0.394762
-0.129306
0.136144
0.400191
0.661215
0.888569
-0.892537
-0.659695
-0.394645
-0.129436
0.135976
0.400903
0.664949
0.895682
-0.889209
-0.658702
-0.394691
-0.129845
0.135527
0.40091
0.665212
0.894382
-0.888807
-0.658841
-0.395265
-0.130451
0.13473
0.400194
0.664779
0.892712
-0.89214
-0.652104
-0.435969
-0.176592
0.133864
0.397981
0.65335
0.898462
-0.907766
-0.677984
-0.416121
-0.128931
0.139796
0.409803
0.67575
0.902686
-0.883973
-0.660673
-0.394953
-0.128652
0.139151
0.407634
0.675892
0.900461
-0.888962
-0.65893
-0.394157
-0.128519
0.138212
0.404548
0.669083
0.906951
-0.890705
-0.658647
-0.393863
-0.128566
0.137668
0.403672
0.669431
0.888281
-0.890184
-0.658554
-0.39385
-0.128739
0.137358
0.403781
0.671763
0.898868
-0.88684
-0.65841
-0.394115
-0.129174
0.136796
0.403372
0.671297
0.897707
-0.884008
-0.659608
-0.39494
-0.129827
0.135833
0.40244
0.670176
0.895869
-0.888081
-0.654021
-0.437483
-0.177817
0.134546
0.399747
0.657449
0.899283
-0.892755
-0.658324
-0.388313
-0.126667
0.138981
0.396692
0.631372
0.856171
-0.887456
-0.643105
-0.388867
-0.12681
0.138528
0.396137
0.633766
0.861118
-0.89149
-0.641916
-0.388568
-0.126924
0.137834
0.394157
0.628906
0.872903
-0.893063
-0.641836
-0.388544
-0.127104
0.137281
0.393067
0.628102
0.842784
-0.893463
-0.642139
-0.388663
-0.127331
0.136807
0.39245
0.628527
0.857288
-0.892407
-0.643175
-0.38912
-0.127721
0.136281
0.392392
0.628627
0.85788
-0.889976
-0.646609
-0.390601
-0.128483
0.135943
0.39349
0.631822
0.862174
-0.879078
-0.646763
-0.438607
-0.181892
0.134866
0.395917
0.637953
0.874387
)
;

boundaryField
{
    my_cube_faces
    {
        type            calculated;
        value           nonuniform 0();
    }
    outlet
    {
        type            calculated;
        value           nonuniform List<scalar> 
111
(
0.995706
0.996743
0.996917
0.994658
0.0955332
0.391736
0.659001
1.00034
0.993727
0.999899
-0.21836
0.0847891
0.396462
0.68028
0.995635
0.892009
0.998402
0.999997
0.999999
-0.216419
0.133665
0.397525
0.647257
0.995319
0.868353
1.0006
0.999998
1
-0.219553
0.134283
0.398689
0.648528
0.992462
0.866079
1.00152
1
1.0002
-0.225571
0.135077
0.400552
0.653283
0.990556
0.862625
-0.845931
-0.608866
-0.3838
-0.129732
0.126842
0.346915
0.576815
0.852401
-0.991688
-0.99681
-0.996177
-0.996752
-0.997871
-0.998061
-0.992562
-0.817983
0.596699
0.890475
-0.994637
-0.81009
0.590965
0.871653
-0.994872
-0.793648
0.319577
0.60084
0.887935
-0.994841
-0.849889
0.0659627
0.357528
0.66105
0.884071
-0.999096
-0.994364
-0.42095
-0.166568
0.0930357
0.409093
0.666505
0.893137
-0.998791
-0.993408
-0.694459
-0.434156
-0.129302
0.139915
0.410489
0.67249
0.900285
-1.00622
-0.99078
-0.88294
-0.671012
-0.388143
-0.126744
0.139056
0.397035
0.628748
0.854686
-0.983736
-0.991132
-0.99347
-0.994244
-0.994584
-0.994402
-0.998125
-0.979068
)
;
    }
    defaultName
    {
        type            calculated;
        value           nonuniform List<scalar> 
32
(
0.816934
0.822749
0.838998
0.797028
0.815942
0.817814
0.828709
-0.856167
-0.641192
-0.437612
-0.182749
0.134865
0.392072
0.620701
0.852784
0.820261
0.821676
0.821251
0.821251
0.82071
-0.841744
0.818271
-0.792261
0.828135
-0.840894
-0.603653
-0.383163
-0.13035
0.131978
0.385583
0.609086
0.849963
)
;
    }
    inlet
    {
        type            calculated;
        value           nonuniform 0();
    }
    outlet_patch0
    {
        type            calculated;
        value           nonuniform List<scalar> 
145
(
1.00001
1
1
0.999999
0.999998
0.999996
1.01217
-0.855518
-0.633358
-0.389131
-0.131423
0.131157
0.389998
0.636027
0.858854
1
1
1
1
1
1
1.01035
-0.860125
-0.632953
-0.391182
-0.137197
0.124752
0.388872
0.638868
0.864819
1.00013
0.99979
1
1
1
1
1.01014
-0.860424
-0.635126
-0.399337
-0.164041
0.0945769
0.387753
0.660923
0.87957
0.999677
1
1
1
1
1.01063
-0.859867
-0.639165
-0.423582
-0.212865
0.895097
1
0.999999
1
1
1.0106
-0.858961
-0.644591
-0.457815
0.999999
1
1
1.01006
-0.857546
-0.649303
-0.49053
1
1
1
1.01024
-0.855435
-0.650367
-0.496248
1.00019
0.999997
0.999995
1.01195
-0.847332
-0.64969
-0.501193
-1.0114
-0.567656
-0.377271
-0.134009
0.111221
0.299227
-1.00594
-1.01011
-1.00886
-1.00796
-1.00598
-1.00305
-1.01067
-0.558172
-0.37689
-0.141852
0.0878283
0.276959
-0.999998
-1
-1
-1
-1
-1
-1.01006
-0.562621
-0.386718
-0.166546
0.0485598
-1.00145
-1.00112
-1
-1
-1
-1
-1.01041
-0.611587
-0.419488
-0.189204
-1.00335
-1
-1
-1
-1
-1.01077
-0.86772
-0.681957
-1.00561
-1
-1
-1
-1
-1.0114
-0.907956
-1.01549
-1.01127
-1.01074
-1.01032
-1.00975
-1.0167
)
;
    }
    defaultName_patch0
    {
        type            calculated;
        value           nonuniform List<scalar> 
96
(
-0.8432
-0.624892
-0.383232
-0.125102
0.137389
0.381203
0.570774
-0.854407
-0.627394
-0.383628
-0.125452
0.13696
0.380884
0.570269
-0.856015
-0.628688
-0.383973
-0.125748
0.136366
0.379722
0.568222
-0.857313
-0.629236
-0.384193
-0.126015
0.135792
0.37865
0.566875
-0.85832
-0.629641
-0.384372
-0.12628
0.135259
0.377769
0.566018
-0.858849
-0.630313
-0.38473
-0.126661
0.134784
0.377964
0.565149
-0.862758
-0.632695
-0.386028
-0.127453
0.135155
0.380545
0.571336
-0.861081
-0.636322
-0.388802
-0.128354
0.135779
0.379941
0.569921
-0.862463
-0.634254
-0.388268
-0.128103
0.135552
0.379907
0.56963
-0.863904
-0.634242
-0.387623
-0.127963
0.135199
0.379169
0.56772
-0.862711
-0.630313
-0.386025
-0.128057
0.134593
0.37811
0.566729
-0.84045
-0.61148
-0.382749
-0.128406
0.133806
0.377088
0.565699
-0.583863
-0.37941
-0.128993
0.133011
0.377093
0.564717
-0.563867
-0.377724
-0.129579
0.13284
0.379295
0.570566
)
;
    }
    inlet_patch0
    {
        type            calculated;
        value           nonuniform 0();
    }
}


// ************************************************************************* //
