/*--------------------------------*- C++ -*----------------------------------*\
| =========                 |                                                 |
| \\      /  F ield         | OpenFOAM: The Open Source CFD Toolbox           |
|  \\    /   O peration     | Version:  2.1                                   |
|   \\  /    A nd           | Web:      www.OpenFOAM.org                      |
|    \\/     M anipulation  |                                                 |
\*---------------------------------------------------------------------------*/
/*   Windows 32 and 64 bit porting by blueCAPE: http://www.bluecape.com.pt   *\
|  Based on Windows porting (2.0.x v4) by Symscape: http://www.symscape.com   |
\*---------------------------------------------------------------------------*/
FoamFile
{
    version     2.0;
    format      ascii;
    class       volScalarField;
    location    "2";
    object      ccy;
}
// * * * * * * * * * * * * * * * * * * * * * * * * * * * * * * * * * * * * * //

dimensions      [0 1 0 0 0 0 0];

internalField   nonuniform List<scalar> 
512
(
-0.878129
-0.887501
-0.891316
-0.8927
-0.891955
-0.886055
-0.893731
-0.864649
-0.633137
-0.64247
-0.641585
-0.641571
-0.641857
-0.642878
-0.64609
-0.633729
-0.386148
-0.38862
-0.388362
-0.388261
-0.38824
-0.38844
-0.388967
-0.385027
-0.131659
-0.129733
-0.127694
-0.126877
-0.126754
-0.126673
-0.126578
-0.125458
0.105382
0.126093
0.135599
0.137556
0.137738
0.138095
0.138629
0.13819
0.380402
0.384856
0.392901
0.393953
0.394053
0.395461
0.397543
0.388662
0.634139
0.64148
0.634293
0.632374
0.632571
0.635844
0.642008
0.604647
0.842838
0.873084
0.866161
0.863984
0.864192
0.866485
0.872927
0.835322
-0.892725
-0.884013
-0.88832
-0.889005
-0.885174
-0.873537
-0.896319
-0.874897
-0.64743
-0.659562
-0.657806
-0.657096
-0.656129
-0.65536
-0.657116
-0.639731
-0.390818
-0.393969
-0.393086
-0.392509
-0.391997
-0.39184
-0.392531
-0.386879
-0.128257
-0.12825
-0.127808
-0.127607
-0.127413
-0.127267
-0.127434
-0.126166
0.138222
0.139041
0.138897
0.138502
0.138455
0.138907
0.139498
0.13862
0.407246
0.408491
0.406697
0.405194
0.4048
0.405865
0.407826
0.396002
0.648848
0.68146
0.67643
0.673801
0.673008
0.674604
0.679628
0.634789
0.869294
0.905306
0.902843
0.901343
0.90038
0.900377
0.902746
0.860914
-0.894123
-0.885595
-0.887909
-0.888083
-0.881057
-0.870737
-0.89472
-0.867368
-0.643621
-0.658885
-0.657027
-0.655453
-0.652493
-0.650698
-0.653674
-0.628716
-0.389909
-0.394141
-0.392589
-0.391207
-0.389905
-0.389678
-0.3912
-0.382987
-0.128125
-0.12858
-0.127779
-0.12722
-0.126753
-0.126602
-0.127126
-0.125157
0.13813
0.138368
0.137799
0.137074
0.136964
0.137703
0.138681
0.13818
0.396701
0.406221
0.403438
0.400688
0.399742
0.401385
0.404809
0.39424
0.634465
0.675856
0.668265
0.662805
0.66035
0.662552
0.670793
0.629739
0.864236
0.902605
0.897008
0.890974
0.887839
0.883715
0.892354
0.850929
-0.88657
-0.885853
-0.888621
-0.88466
-0.877746
-0.892169
-0.897943
-0.86358
-0.636181
-0.65917
-0.656172
-0.652718
-0.64861
-0.647889
-0.652542
-0.610956
-0.389052
-0.394627
-0.392058
-0.389672
-0.387904
-0.388116
-0.390338
-0.371367
-0.12888
-0.129217
-0.127992
-0.127049
-0.126366
-0.126259
-0.126971
-0.121342
0.136391
0.137464
0.136535
0.135471
0.13539
0.136495
0.13797
0.138798
0.393275
0.404513
0.400365
0.396475
0.395375
0.39775
0.402537
0.393268
0.63091
0.673256
0.662642
0.654842
0.652206
0.655308
0.665863
0.627711
0.86269
0.901145
0.890931
0.88249
0.899248
0.90027
0.904188
0.838578
-0.878237
-0.884092
-0.882145
-0.873905
-0.891979
-0.896321
-0.889825
-0.858328
-0.624961
-0.658426
-0.652837
-0.648781
-0.646166
-0.647314
-0.652823
-0.6074
-0.387923
-0.394997
-0.391238
-0.388375
-0.386971
-0.387798
-0.390397
-0.352497
-0.129592
-0.129754
-0.128082
-0.126889
-0.126196
-0.126143
-0.126748
-0.110256
0.135845
0.137037
0.136067
0.135026
0.135063
0.1363
0.137944
0.141048
0.392983
0.404045
0.399274
0.395211
0.394451
0.397133
0.402279
0.393435
0.631509
0.672606
0.660185
0.65219
0.650754
0.654381
0.665666
0.627765
0.863403
0.900215
0.887745
0.899266
0.897271
0.890781
0.904603
0.864997
-0.835434
-0.878679
-0.897574
-0.893386
-0.896337
-0.888435
-0.890387
-0.880245
-0.617977
-0.658923
-0.651538
-0.648403
-0.6474
-0.648889
-0.653975
-0.620735
-0.387518
-0.395817
-0.391608
-0.38906
-0.388136
-0.388958
-0.391364
-0.343209
-0.130084
-0.13014
-0.128276
-0.127093
-0.12649
-0.126382
-0.126702
-0.0943987
0.135922
0.13729
0.136673
0.135991
0.136123
0.137184
0.138563
0.144398
0.394422
0.405127
0.40093
0.397606
0.397159
0.399476
0.403869
0.394583
0.635209
0.674386
0.662535
0.655506
0.654693
0.658132
0.668482
0.62902
0.865997
0.899922
0.883029
0.900419
0.891009
0.892653
0.898025
0.860173
-0.843054
-0.898841
-0.898301
-0.889815
-0.889466
-0.88991
-0.89087
-0.878408
-0.624817
-0.662772
-0.656205
-0.653549
-0.65278
-0.65374
-0.657349
-0.649209
-0.389058
-0.397244
-0.393663
-0.391668
-0.390923
-0.391258
-0.392662
-0.343841
-0.130477
-0.130388
-0.128798
-0.127871
-0.127364
-0.127108
-0.127064
-0.0811311
0.136248
0.137977
0.137791
0.137537
0.13774
0.138474
0.139399
0.147855
0.396481
0.407192
0.40447
0.402521
0.402463
0.404109
0.40692
0.396552
0.641548
0.679544
0.670955
0.666508
0.666722
0.669527
0.676611
0.633716
0.872541
0.901775
0.887415
0.905619
0.89733
0.89869
0.901862
0.862906
-0.862273
-0.892037
-0.880216
-0.879236
-0.878939
-0.879563
-0.881992
-0.869103
-0.626253
-0.648813
-0.644885
-0.643115
-0.642439
-0.643117
-0.64651
-0.642909
-0.387746
-0.39266
-0.390494
-0.389198
-0.388527
-0.388469
-0.388628
-0.335005
-0.12887
-0.128981
-0.128064
-0.127429
-0.126984
-0.126648
-0.12577
-0.0736181
0.136256
0.137326
0.137226
0.137195
0.137434
0.137982
0.138749
0.149855
0.387781
0.395451
0.393917
0.393124
0.393362
0.395013
0.397332
0.389618
0.604073
0.634637
0.629585
0.628021
0.629437
0.633665
0.64073
0.604293
0.834621
0.859155
0.842089
0.872103
0.861142
0.864658
0.870932
0.831319
)
;

boundaryField
{
    my_cube_faces
    {
        type            calculated;
        value           nonuniform 0();
    }
    outlet
    {
        type            calculated;
        value           nonuniform List<scalar> 
111
(
0.81895
0.819503
0.815866
-0.833474
1
0.999994
1.00049
0.799357
-0.827023
-0.565323
1
0.999999
0.999999
1.00063
0.838798
0.999585
-0.864402
-0.594026
-0.301907
1
0.999999
0.999999
1.00001
0.822867
1.00022
-0.859787
-0.641349
-0.301452
1
0.999999
0.999999
0.999997
0.825857
1.00315
-0.85244
-0.642048
-0.292231
1.0002
1
1
1.00001
0.820642
1.00434
-0.981992
-0.991102
-0.993374
-0.99411
-0.994002
-0.990833
-0.992522
-0.970619
-0.855667
-0.62689
-0.38458
-0.132604
0.0965375
0.374832
0.834175
-1.00446
-1.00284
-0.981606
0.83225
-0.997008
-1.00113
-0.985699
0.825123
-0.998561
-1
-1.00081
-0.988667
0.823061
-0.998088
-1
-0.999999
-1.00025
-0.990537
-0.840588
0.824627
-0.999978
-1
-1
-1
-0.999967
-0.983972
-0.78444
0.829314
-1.00347
-0.999935
-0.99998
-1
-1.00006
-0.999756
-0.9796
-0.807625
0.841413
-0.987476
-0.990344
-0.985492
-0.984971
-0.984885
-0.985331
-0.988164
-0.968586
-0.844751
-0.606368
-0.383046
-0.128486
0.135371
0.381648
0.573633
0.80809
)
;
    }
    defaultName
    {
        type            calculated;
        value           nonuniform List<scalar> 
32
(
-0.859921
-0.638217
-0.331866
-0.0712457
0.149607
0.383743
0.574684
0.818058
0.815787
0.795645
0.838571
0.825207
0.830937
0.842272
0.806198
-0.854864
-0.628281
-0.383185
-0.124965
0.137588
0.367813
0.382688
0.608941
0.574586
0.819203
0.840957
0.828647
0.825273
0.825905
0.829975
0.841747
0.808872
)
;
    }
    inlet
    {
        type            calculated;
        value           nonuniform 0();
    }
    outlet_patch0
    {
        type            calculated;
        value           nonuniform List<scalar> 
145
(
-0.844133
-0.623894
-0.381977
-0.124648
0.137482
0.380327
0.568935
1.00001
1
1
1
1
1
1
1.00001
-0.849343
-0.619748
-0.380392
-0.124665
0.137053
0.380628
0.569581
1
1
1
1
1
1
1
1
-0.827178
-0.597262
-0.37276
-0.122472
0.136974
0.379851
0.568472
1
1
1
1
1
0.999994
0.999982
0.99999
-0.55625
-0.346886
-0.114165
0.138923
0.37953
0.568742
1
1
1
1
1.00073
-0.303413
-0.0895048
0.143851
0.379955
0.568722
1
1
1
-0.0544444
0.150577
0.38099
0.568308
1
1
1
-0.0195628
0.157189
0.382276
0.569816
1
1
1
-0.00797888
0.161074
0.382292
0.569303
1.00001
1
1.0002
0.631377
-1.01645
-1.01132
-1.01069
-1.01016
-1.00788
-0.868287
-0.63332
-0.386766
-0.127675
0.138437
0.407616
0.597009
-1.00806
-1
-1
-1
-1.00009
-0.861815
-0.628055
-0.384745
-0.127098
0.137629
0.384274
0.573534
-1.00584
-1
-1
-1
-0.840586
-0.609546
-0.381863
-0.1278
0.134752
0.378593
0.568905
-1.00259
-1
-1
-0.581568
-0.377966
-0.128359
0.134075
0.37816
0.570209
-1.00043
-1.00022
-0.556337
-0.375199
-0.12872
0.1341
0.379707
0.574262
-1.00438
-0.563827
-0.376165
-0.129343
0.134153
0.381292
0.579457
)
;
    }
    defaultName_patch0
    {
        type            calculated;
        value           nonuniform List<scalar> 
96
(
-0.85952
-0.860685
-0.860726
-0.859691
-0.85919
-0.859317
-0.863084
-0.635102
-0.632847
-0.632027
-0.630964
-0.63024
-0.630304
-0.632327
-0.388255
-0.387426
-0.386298
-0.385356
-0.384704
-0.384362
-0.383365
-0.12812
-0.127674
-0.1271
-0.126575
-0.126138
-0.125729
-0.124234
0.135722
0.135738
0.135699
0.135739
0.135998
0.136515
0.137289
0.379512
0.380037
0.379422
0.379074
0.379322
0.380959
0.382722
0.568176
0.569353
0.567896
0.568738
0.570682
0.574928
0.580124
-0.841753
-0.853694
-0.855761
-0.857326
-0.858512
-0.859341
-0.863293
-0.623527
-0.626695
-0.628483
-0.629208
-0.629659
-0.630248
-0.632498
-0.383523
-0.383875
-0.384063
-0.384141
-0.384205
-0.384324
-0.384418
-0.136155
-0.132354
-0.12784
-0.126051
-0.125837
-0.125742
-0.125434
0.0722377
0.108375
0.131014
0.135694
0.136155
0.136501
0.13708
0.351796
0.375218
0.379008
0.379404
0.38093
0.382667
0.575403
0.571588
0.57122
0.571948
0.575326
0.580253
)
;
    }
    inlet_patch0
    {
        type            calculated;
        value           nonuniform 0();
    }
}


// ************************************************************************* //
