/*--------------------------------*- C++ -*----------------------------------*\
| =========                 |                                                 |
| \\      /  F ield         | OpenFOAM: The Open Source CFD Toolbox           |
|  \\    /   O peration     | Version:  2.1                                   |
|   \\  /    A nd           | Web:      www.OpenFOAM.org                      |
|    \\/     M anipulation  |                                                 |
\*---------------------------------------------------------------------------*/
/*   Windows 32 and 64 bit porting by blueCAPE: http://www.bluecape.com.pt   *\
|  Based on Windows porting (2.0.x v4) by Symscape: http://www.symscape.com   |
\*---------------------------------------------------------------------------*/
FoamFile
{
    version     2.0;
    format      ascii;
    class       volScalarField;
    location    "2";
    object      ccz;
}
// * * * * * * * * * * * * * * * * * * * * * * * * * * * * * * * * * * * * * //

dimensions      [0 1 0 0 0 0 0];

internalField   nonuniform List<scalar> 
512
(
-0.835293
-0.873515
-0.866564
-0.863995
-0.864005
-0.867439
-0.867765
-0.895461
-0.86275
-0.905544
-0.903747
-0.903198
-0.901979
-0.897575
-0.894638
-0.897803
-0.859801
-0.902916
-0.900047
-0.899469
-0.898499
-0.89449
-0.891616
-0.895815
-0.856314
-0.900755
-0.898644
-0.898502
-0.89766
-0.89371
-0.890968
-0.894809
-0.849151
-0.895655
-0.896556
-0.897278
-0.896631
-0.892799
-0.890195
-0.894168
-0.881173
-0.890709
-0.891879
-0.893066
-0.892613
-0.889261
-0.886874
-0.892701
-0.881576
-0.883703
-0.88985
-0.891184
-0.891059
-0.88886
-0.884076
-0.890097
-0.878714
-0.887756
-0.892024
-0.893308
-0.893212
-0.891714
-0.887644
-0.878306
-0.60501
-0.642359
-0.635325
-0.632494
-0.633805
-0.638673
-0.645282
-0.653356
-0.634453
-0.68081
-0.67645
-0.674382
-0.672863
-0.670462
-0.668329
-0.65343
-0.62878
-0.67525
-0.67008
-0.668046
-0.666677
-0.664426
-0.662812
-0.647398
-0.624616
-0.671877
-0.667106
-0.665356
-0.664104
-0.661942
-0.66053
-0.644529
-0.621068
-0.667705
-0.664541
-0.663482
-0.662521
-0.660624
-0.659506
-0.643562
-0.628062
-0.663628
-0.661483
-0.660936
-0.66036
-0.65911
-0.658915
-0.643993
-0.639348
-0.662114
-0.659895
-0.659399
-0.659197
-0.658922
-0.659881
-0.647079
-0.632405
-0.644585
-0.644166
-0.646152
-0.648961
-0.650536
-0.650124
-0.64026
-0.39256
-0.396766
-0.394972
-0.39732
-0.406865
-0.415303
-0.413845
-0.425608
-0.39741
-0.406809
-0.405046
-0.403778
-0.403048
-0.402096
-0.401012
-0.411199
-0.393149
-0.404754
-0.402903
-0.40153
-0.40056
-0.399405
-0.398301
-0.398151
-0.390353
-0.40268
-0.400841
-0.399574
-0.398611
-0.397479
-0.396561
-0.392838
-0.389273
-0.400505
-0.398978
-0.398044
-0.397311
-0.396392
-0.395692
-0.39092
-0.389884
-0.398439
-0.397209
-0.396656
-0.396287
-0.395761
-0.395405
-0.390639
-0.39048
-0.396862
-0.395976
-0.395856
-0.395913
-0.39579
-0.39578
-0.391159
-0.386976
-0.392016
-0.395699
-0.406997
-0.422772
-0.433866
-0.424846
-0.410787
-0.166876
-0.137826
-0.141074
-0.154138
-0.171258
-0.168868
-0.156671
-0.17989
-0.146931
-0.135623
-0.134784
-0.134409
-0.133982
-0.133512
-0.133486
-0.169278
-0.136229
-0.134869
-0.134119
-0.133609
-0.133252
-0.133019
-0.133076
-0.14973
-0.132962
-0.133989
-0.133325
-0.132908
-0.132629
-0.132422
-0.132373
-0.136783
-0.131898
-0.133061
-0.132552
-0.132305
-0.132143
-0.132014
-0.131965
-0.132289
-0.131187
-0.132212
-0.131944
-0.131872
-0.131808
-0.13179
-0.131809
-0.131056
-0.13044
-0.13158
-0.131757
-0.131832
-0.131651
-0.131662
-0.13175
-0.131124
-0.129625
-0.133166
-0.145639
-0.167533
-0.178154
-0.175748
-0.183499
-0.18741
0.123317
0.129974
0.104088
0.0830465
0.0915657
0.109252
0.136546
0.10752
0.121219
0.136044
0.135873
0.135973
0.136149
0.135686
0.134594
0.0928331
0.131213
0.135516
0.135288
0.135064
0.134777
0.134052
0.132928
0.0953485
0.133729
0.135263
0.134789
0.1343
0.13376
0.133004
0.13215
0.116189
0.134009
0.135159
0.134466
0.133811
0.133219
0.132579
0.132052
0.128129
0.134097
0.134989
0.134097
0.133419
0.132966
0.132466
0.132052
0.13071
0.134352
0.134601
0.133589
0.133059
0.132851
0.132526
0.132181
0.130467
0.132918
0.129986
0.116503
0.112341
0.106051
0.132517
0.103848
0.0886221
0.403834
0.381026
0.361612
0.369766
0.377211
0.40654
0.40445
0.400723
0.395516
0.408099
0.407413
0.407035
0.40641
0.404958
0.402654
0.370979
0.392587
0.405897
0.404525
0.403464
0.402483
0.400966
0.399143
0.374111
0.391918
0.404407
0.402511
0.401033
0.399821
0.398316
0.396902
0.376081
0.391245
0.403421
0.401267
0.399654
0.398441
0.397058
0.39591
0.387637
0.391269
0.402408
0.400058
0.398589
0.39768
0.396606
0.395701
0.390377
0.392421
0.401225
0.398757
0.397662
0.397248
0.396605
0.396002
0.391163
0.390235
0.393638
0.391092
0.392642
0.395592
0.395239
0.394898
0.392255
0.601271
0.637283
0.648077
0.67134
0.669939
0.667224
0.664553
0.655499
0.641872
0.680971
0.676857
0.675583
0.674337
0.671863
0.669529
0.656012
0.634882
0.676799
0.67115
0.669192
0.667824
0.665581
0.663867
0.647059
0.631094
0.674723
0.668623
0.666326
0.664863
0.662653
0.661056
0.643285
0.6292
0.673218
0.667101
0.664756
0.663319
0.661171
0.659781
0.642365
0.628429
0.671029
0.66499
0.662871
0.661676
0.659953
0.659314
0.643918
0.630972
0.668908
0.663406
0.66178
0.66112
0.660232
0.66065
0.647506
0.628422
0.650464
0.648224
0.647205
0.649799
0.649248
0.650035
0.643742
0.839471
0.879063
0.90141
0.900662
0.899377
0.895066
0.893957
0.898622
0.873078
0.904619
0.902422
0.901945
0.900935
0.896922
0.894644
0.900499
0.866266
0.903599
0.900145
0.89944
0.898478
0.89456
0.892294
0.894599
0.863485
0.903245
0.899593
0.89879
0.89781
0.893869
0.891208
0.895841
0.861774
0.902206
0.898635
0.897824
0.896854
0.892943
0.89031
0.894343
0.858449
0.898154
0.894716
0.893923
0.892989
0.889471
0.886992
0.892694
0.861489
0.895316
0.89201
0.892083
0.891709
0.889399
0.884445
0.890312
0.872475
0.898558
0.897643
0.894119
0.896038
0.894188
0.890498
0.882917
)
;

boundaryField
{
    my_cube_faces
    {
        type            calculated;
        value           nonuniform 0();
    }
    outlet
    {
        type            calculated;
        value           nonuniform List<scalar> 
111
(
-0.85495
-0.633764
-0.4041
-0.215391
-0.217966
-0.214305
-0.229155
-0.189265
0.0842044
0.0560578
0.0956417
0.0845899
0.132657
0.0783688
0.0729065
0.0586556
0.399504
0.347833
0.355579
0.389624
0.395605
0.395326
0.394697
0.391398
0.393673
0.651488
0.648115
0.637512
0.639631
0.644313
0.643553
0.642372
0.639818
0.642785
0.866553
0.869792
0.865239
0.864491
0.864841
0.863172
0.861101
0.861224
0.854123
-0.811427
-0.841935
-0.829192
-0.82499
-0.825944
-0.836807
-0.840195
-0.890088
-0.81485
-0.819821
-0.817135
-0.811402
-0.790338
-0.843144
-0.853924
-0.574405
-0.621996
-0.652157
-0.62327
-0.387762
-0.423566
-0.432379
-0.383959
-0.175377
-0.201747
-0.175075
-0.174431
-0.12889
0.11919
0.0500515
0.0872993
0.137784
0.138045
0.122035
0.132834
0.321218
0.3383
0.35205
0.40647
0.404775
0.402406
0.410536
0.385973
0.592437
0.622044
0.664917
0.663271
0.660351
0.657332
0.654282
0.568763
0.609239
0.826296
0.849421
0.893928
0.89311
0.891619
0.886991
0.885813
0.893208
0.803079
0.842063
0.82877
0.824011
0.821665
0.818532
0.827635
0.849567
)
;
    }
    defaultName
    {
        type            calculated;
        value           nonuniform List<scalar> 
32
(
0.995488
0.996205
0.992894
0.998315
0.995483
0.994517
0.997858
0.995313
0.997286
0.999213
0.992758
0.994253
0.993116
0.990298
0.97934
-0.994958
-0.996414
-0.995449
-0.994993
-0.994817
-0.998799
-0.994453
-1.00239
-0.997946
-0.982342
-0.990776
-0.993664
-0.99419
-0.994041
-0.993257
-0.990708
-0.978628
)
;
    }
    inlet
    {
        type            calculated;
        value           nonuniform 0();
    }
    outlet_patch0
    {
        type            calculated;
        value           nonuniform List<scalar> 
145
(
-0.860647
-0.862905
-0.861452
-0.860095
-0.85953
-0.859332
-0.862953
-0.847767
-0.85505
-0.856737
-0.857698
-0.857833
-0.856766
-0.854501
-0.845903
-0.647757
-0.64246
-0.63597
-0.632476
-0.631266
-0.631202
-0.633184
-0.627519
-0.628938
-0.632314
-0.63747
-0.643488
-0.646238
-0.642073
-0.636803
-0.455787
-0.42647
-0.400111
-0.390449
-0.387174
-0.386482
-0.386188
-0.385422
-0.38835
-0.397412
-0.422414
-0.456844
-0.484649
-0.4615
-0.436507
-0.216078
-0.170523
-0.142221
-0.13296
-0.130424
-0.130529
-0.129238
-0.135497
-0.162826
-0.212092
-0.267596
0.0490139
0.0974619
0.123993
0.129457
0.128771
0.132277
0.125366
0.0948165
0.351774
0.38008
0.385782
0.38639
0.390291
0.386695
0.382713
0.625955
0.628233
0.630846
0.633606
0.635839
0.633697
0.633739
0.857224
0.859003
0.859202
0.863157
0.858542
0.861844
0.859412
-0.837666
-0.580395
-0.573806
-0.571531
-0.574048
-0.581543
-0.570566
-0.567919
-0.56299
-0.558557
-0.557667
-0.582792
-0.607279
-0.382113
-0.381889
-0.388685
-0.410849
-0.433396
-0.390082
-0.385534
-0.378921
-0.375486
-0.375868
-0.379325
-0.382122
-0.139264
-0.148422
-0.177972
-0.218854
-0.196404
-0.161675
-0.137422
-0.131382
-0.130225
-0.129774
-0.129088
0.122615
0.0641612
0.0108061
0.100336
0.126028
0.131604
0.132215
0.13241
0.133217
0.412876
0.344067
0.377218
0.376153
0.37662
0.376173
0.37668
0.379382
0.55504
0.57892
0.572833
0.568835
0.566372
0.56483
0.570576
)
;
    }
    defaultName_patch0
    {
        type            calculated;
        value           nonuniform List<scalar> 
96
(
1.00001
1
1
1
0.999998
0.999997
1.01177
1
1
1
1
1
1
1.01036
1
1
1
1
1
1
1.01
1
1
1
1
1
1
1.01007
0.999998
1
1
1
1
1
1.01005
0.999996
1
1
1
1
1
1.00966
1.01195
1.01036
1.00999
1.01036
1.01076
1.01143
1.01669
-1.00001
-1
-1
-1
-0.999998
-0.999997
-1.01178
-1
-1
-1
-1
-1
-1
-1.01037
-1
-1
-1
-1
-1
-1
-1.00999
-1
-1
-1
-1
-1
-1
-1.01009
-1.00197
-1.00087
-1
-1
-1
-1
-1.01005
-1.00259
-1
-1
-1
-1
-1.00965
-1.01279
-1.01122
-1.01096
-1.01101
-1.01149
-1.0167
)
;
    }
    inlet_patch0
    {
        type            calculated;
        value           nonuniform 0();
    }
}


// ************************************************************************* //
